1
Step 120000
Ar 1.061601e+00 0.000000e+00 0.000000e+00
1
Step 121000
Ar 9.376028e-01 0.000000e+00 0.000000e+00
1
Step 122000
Ar 1.063698e+00 0.000000e+00 0.000000e+00
1
Step 123000
Ar 9.593074e-01 0.000000e+00 0.000000e+00
1
Step 124000
Ar 9.265077e-01 0.000000e+00 0.000000e+00
1
Step 125000
Ar 9.922380e-01 0.000000e+00 0.000000e+00
1
Step 126000
Ar 1.112678e+00 0.000000e+00 0.000000e+00
1
Step 127000
Ar 1.094648e+00 0.000000e+00 0.000000e+00
1
Step 128000
Ar 1.007405e+00 0.000000e+00 0.000000e+00
1
Step 129000
Ar 1.021968e+00 0.000000e+00 0.000000e+00
1
Step 130000
Ar 1.112127e+00 0.000000e+00 0.000000e+00
1
Step 131000
Ar 9.385226e-01 0.000000e+00 0.000000e+00
1
Step 132000
Ar 9.567724e-01 0.000000e+00 0.000000e+00
1
Step 133000
Ar 9.735277e-01 0.000000e+00 0.000000e+00
1
Step 134000
Ar 9.235882e-01 0.000000e+00 0.000000e+00
1
Step 135000
Ar 8.818895e-01 0.000000e+00 0.000000e+00
1
Step 136000
Ar 9.415100e-01 0.000000e+00 0.000000e+00
1
Step 137000
Ar 9.642195e-01 0.000000e+00 0.000000e+00
1
Step 138000
Ar 9.699097e-01 0.000000e+00 0.000000e+00
1
Step 139000
Ar 9.202540e-01 0.000000e+00 0.000000e+00
1
Step 140000
Ar 9.107826e-01 0.000000e+00 0.000000e+00
1
Step 141000
Ar 9.795322e-01 0.000000e+00 0.000000e+00
1
Step 142000
Ar 9.589311e-01 0.000000e+00 0.000000e+00
1
Step 143000
Ar 9.228782e-01 0.000000e+00 0.000000e+00
1
Step 144000
Ar 9.440688e-01 0.000000e+00 0.000000e+00
1
Step 145000
Ar 9.781508e-01 0.000000e+00 0.000000e+00
1
Step 146000
Ar 1.015448e+00 0.000000e+00 0.000000e+00
1
Step 147000
Ar 1.094045e+00 0.000000e+00 0.000000e+00
1
Step 148000
Ar 1.097492e+00 0.000000e+00 0.000000e+00
1
Step 149000
Ar 1.024375e+00 0.000000e+00 0.000000e+00
1
Step 150000
Ar 1.023046e+00 0.000000e+00 0.000000e+00
1
Step 151000
Ar 1.090119e+00 0.000000e+00 0.000000e+00
1
Step 152000
Ar 1.093761e+00 0.000000e+00 0.000000e+00
1
Step 153000
Ar 1.041511e+00 0.000000e+00 0.000000e+00
1
Step 154000
Ar 1.031291e+00 0.000000e+00 0.000000e+00
1
Step 155000
Ar 1.041278e+00 0.000000e+00 0.000000e+00
1
Step 156000
Ar 1.086222e+00 0.000000e+00 0.000000e+00
1
Step 157000
Ar 1.065302e+00 0.000000e+00 0.000000e+00
1
Step 158000
Ar 1.058653e+00 0.000000e+00 0.000000e+00
1
Step 159000
Ar 1.077869e+00 0.000000e+00 0.000000e+00
1
Step 160000
Ar 1.071822e+00 0.000000e+00 0.000000e+00
1
Step 161000
Ar 1.167653e+00 0.000000e+00 0.000000e+00
1
Step 162000
Ar 1.145734e+00 0.000000e+00 0.000000e+00
1
Step 163000
Ar 1.171107e+00 0.000000e+00 0.000000e+00
1
Step 164000
Ar 1.218840e+00 0.000000e+00 0.000000e+00
1
Step 165000
Ar 1.161560e+00 0.000000e+00 0.000000e+00
1
Step 166000
Ar 1.220157e+00 0.000000e+00 0.000000e+00
1
Step 167000
Ar 1.225224e+00 0.000000e+00 0.000000e+00
1
Step 168000
Ar 1.181449e+00 0.000000e+00 0.000000e+00
1
Step 169000
Ar 1.196551e+00 0.000000e+00 0.000000e+00
1
Step 170000
Ar 1.222104e+00 0.000000e+00 0.000000e+00
1
Step 171000
Ar 1.250660e+00 0.000000e+00 0.000000e+00
1
Step 172000
Ar 1.284406e+00 0.000000e+00 0.000000e+00
1
Step 173000
Ar 1.235421e+00 0.000000e+00 0.000000e+00
1
Step 174000
Ar 1.247527e+00 0.000000e+00 0.000000e+00
1
Step 175000
Ar 1.234629e+00 0.000000e+00 0.000000e+00
1
Step 176000
Ar 1.265224e+00 0.000000e+00 0.000000e+00
1
Step 177000
Ar 1.274308e+00 0.000000e+00 0.000000e+00
1
Step 178000
Ar 1.265774e+00 0.000000e+00 0.000000e+00
1
Step 179000
Ar 1.292382e+00 0.000000e+00 0.000000e+00
1
Step 180000
Ar 1.335245e+00 0.000000e+00 0.000000e+00
1
Step 181000
Ar 1.354070e+00 0.000000e+00 0.000000e+00
1
Step 182000
Ar 1.376030e+00 0.000000e+00 0.000000e+00
1
Step 183000
Ar 1.347620e+00 0.000000e+00 0.000000e+00
1
Step 184000
Ar 1.353259e+00 0.000000e+00 0.000000e+00
1
Step 185000
Ar 1.368476e+00 0.000000e+00 0.000000e+00
1
Step 186000
Ar 1.091614e+00 0.000000e+00 0.000000e+00
1
Step 187000
Ar 1.098318e+00 0.000000e+00 0.000000e+00
1
Step 188000
Ar 1.093024e+00 0.000000e+00 0.000000e+00
1
Step 189000
Ar 1.088090e+00 0.000000e+00 0.000000e+00
1
Step 190000
Ar 1.097153e+00 0.000000e+00 0.000000e+00
1
Step 191000
Ar 1.105442e+00 0.000000e+00 0.000000e+00
1
Step 192000
Ar 1.086331e+00 0.000000e+00 0.000000e+00
1
Step 193000
Ar 1.081110e+00 0.000000e+00 0.000000e+00
1
Step 194000
Ar 1.085437e+00 0.000000e+00 0.000000e+00
1
Step 195000
Ar 1.083473e+00 0.000000e+00 0.000000e+00
1
Step 196000
Ar 1.143599e+00 0.000000e+00 0.000000e+00
1
Step 197000
Ar 1.143089e+00 0.000000e+00 0.000000e+00
1
Step 198000
Ar 1.131613e+00 0.000000e+00 0.000000e+00
1
Step 199000
Ar 1.144077e+00 0.000000e+00 0.000000e+00
1
Step 200000
Ar 1.149738e+00 0.000000e+00 0.000000e+00
1
Step 201000
Ar 1.122123e+00 0.000000e+00 0.000000e+00
1
Step 202000
Ar 1.129573e+00 0.000000e+00 0.000000e+00
1
Step 203000
Ar 1.133216e+00 0.000000e+00 0.000000e+00
1
Step 204000
Ar 1.127704e+00 0.000000e+00 0.000000e+00
1
Step 205000
Ar 1.128069e+00 0.000000e+00 0.000000e+00
1
Step 206000
Ar 1.006222e+00 0.000000e+00 0.000000e+00
1
Step 207000
Ar 1.003603e+00 0.000000e+00 0.000000e+00
1
Step 208000
Ar 1.011759e+00 0.000000e+00 0.000000e+00
1
Step 209000
Ar 1.011027e+00 0.000000e+00 0.000000e+00
1
Step 210000
Ar 1.009960e+00 0.000000e+00 0.000000e+00
1
Step 211000
Ar 1.003266e+00 0.000000e+00 0.000000e+00
1
Step 212000
Ar 1.000125e+00 0.000000e+00 0.000000e+00
1
Step 213000
Ar 8.223578e-01 0.000000e+00 0.000000e+00
1
Step 214000
Ar 8.056712e-01 0.000000e+00 0.000000e+00
1
Step 215000
Ar 8.077272e-01 0.000000e+00 0.000000e+00
1
Step 216000
Ar 7.534349e-01 0.000000e+00 0.000000e+00
1
Step 217000
Ar 7.654246e-01 0.000000e+00 0.000000e+00
1
Step 218000
Ar 7.313118e-01 0.000000e+00 0.000000e+00
1
Step 219000
Ar 7.819821e-01 0.000000e+00 0.000000e+00
1
Step 220000
Ar 6.581275e-01 0.000000e+00 0.000000e+00
1
Step 221000
Ar 6.384768e-01 0.000000e+00 0.000000e+00
1
Step 222000
Ar 6.119080e-01 0.000000e+00 0.000000e+00
1
Step 223000
Ar 6.178663e-01 0.000000e+00 0.000000e+00
1
Step 224000
Ar 5.851197e-01 0.000000e+00 0.000000e+00
1
Step 225000
Ar 6.220911e-01 0.000000e+00 0.000000e+00
1
Step 226000
Ar 6.906154e-01 0.000000e+00 0.000000e+00
1
Step 227000
Ar 7.203001e-01 0.000000e+00 0.000000e+00
1
Step 228000
Ar 7.757325e-01 0.000000e+00 0.000000e+00
1
Step 229000
Ar 7.507014e-01 0.000000e+00 0.000000e+00
1
Step 230000
Ar 7.270209e-01 0.000000e+00 0.000000e+00
1
Step 231000
Ar 7.566324e-01 0.000000e+00 0.000000e+00
1
Step 232000
Ar 7.506612e-01 0.000000e+00 0.000000e+00
1
Step 233000
Ar 7.865998e-01 0.000000e+00 0.000000e+00
1
Step 234000
Ar 7.744248e-01 0.000000e+00 0.000000e+00
1
Step 235000
Ar 7.786585e-01 0.000000e+00 0.000000e+00
1
Step 236000
Ar 7.631907e-01 0.000000e+00 0.000000e+00
1
Step 237000
Ar 7.568631e-01 0.000000e+00 0.000000e+00
1
Step 238000
Ar 7.608605e-01 0.000000e+00 0.000000e+00
1
Step 239000
Ar 7.646573e-01 0.000000e+00 0.000000e+00
1
Step 240000
Ar 7.525653e-01 0.000000e+00 0.000000e+00
1
Step 241000
Ar 7.949013e-01 0.000000e+00 0.000000e+00
1
Step 242000
Ar 7.956436e-01 0.000000e+00 0.000000e+00
1
Step 243000
Ar 7.914205e-01 0.000000e+00 0.000000e+00
1
Step 244000
Ar 7.934187e-01 0.000000e+00 0.000000e+00
1
Step 245000
Ar 7.940259e-01 0.000000e+00 0.000000e+00
1
Step 246000
Ar 7.070264e-01 0.000000e+00 0.000000e+00
1
Step 247000
Ar 6.837944e-01 0.000000e+00 0.000000e+00
1
Step 248000
Ar 7.151569e-01 0.000000e+00 0.000000e+00
1
Step 249000
Ar 6.760979e-01 0.000000e+00 0.000000e+00
1
Step 250000
Ar 6.891173e-01 0.000000e+00 0.000000e+00
1
Step 251000
Ar 6.385525e-01 0.000000e+00 0.000000e+00
1
Step 252000
Ar 6.404531e-01 0.000000e+00 0.000000e+00
1
Step 253000
Ar 6.454543e-01 0.000000e+00 0.000000e+00
1
Step 254000
Ar 6.428932e-01 0.000000e+00 0.000000e+00
1
Step 255000
Ar 6.417546e-01 0.000000e+00 0.000000e+00
1
Step 256000
Ar 7.666051e-01 0.000000e+00 0.000000e+00
1
Step 257000
Ar 7.653967e-01 0.000000e+00 0.000000e+00
1
Step 258000
Ar 7.673653e-01 0.000000e+00 0.000000e+00
1
Step 259000
Ar 7.650930e-01 0.000000e+00 0.000000e+00
1
Step 260000
Ar 7.632076e-01 0.000000e+00 0.000000e+00
1
Step 261000
Ar 9.503030e-01 0.000000e+00 0.000000e+00
1
Step 262000
Ar 9.307846e-01 0.000000e+00 0.000000e+00
1
Step 263000
Ar 9.448480e-01 0.000000e+00 0.000000e+00
1
Step 264000
Ar 9.509384e-01 0.000000e+00 0.000000e+00
1
Step 265000
Ar 9.444102e-01 0.000000e+00 0.000000e+00
1
Step 266000
Ar 9.280119e-01 0.000000e+00 0.000000e+00
1
Step 267000
Ar 9.219978e-01 0.000000e+00 0.000000e+00
1
Step 268000
Ar 9.264305e-01 0.000000e+00 0.000000e+00
1
Step 269000
Ar 9.212888e-01 0.000000e+00 0.000000e+00
1
Step 270000
Ar 9.290118e-01 0.000000e+00 0.000000e+00
1
Step 271000
Ar 9.522872e-01 0.000000e+00 0.000000e+00
1
Step 272000
Ar 9.613853e-01 0.000000e+00 0.000000e+00
1
Step 273000
Ar 9.642677e-01 0.000000e+00 0.000000e+00
1
Step 274000
Ar 9.596765e-01 0.000000e+00 0.000000e+00
1
Step 275000
Ar 9.635916e-01 0.000000e+00 0.000000e+00
1
Step 276000
Ar 9.538515e-01 0.000000e+00 0.000000e+00
1
Step 277000
Ar 1.055632e+00 0.000000e+00 0.000000e+00
1
Step 278000
Ar 1.056362e+00 0.000000e+00 0.000000e+00
1
Step 279000
Ar 1.053859e+00 0.000000e+00 0.000000e+00
1
Step 280000
Ar 1.053962e+00 0.000000e+00 0.000000e+00
1
Step 281000
Ar 8.272255e-01 0.000000e+00 0.000000e+00
1
Step 282000
Ar 8.215774e-01 0.000000e+00 0.000000e+00
1
Step 283000
Ar 8.452753e-01 0.000000e+00 0.000000e+00
1
Step 284000
Ar 8.452293e-01 0.000000e+00 0.000000e+00
1
Step 285000
Ar 8.247493e-01 0.000000e+00 0.000000e+00
1
Step 286000
Ar 8.688484e-01 0.000000e+00 0.000000e+00
1
Step 287000
Ar 8.631401e-01 0.000000e+00 0.000000e+00
1
Step 288000
Ar 8.612039e-01 0.000000e+00 0.000000e+00
1
Step 289000
Ar 8.599605e-01 0.000000e+00 0.000000e+00
1
Step 290000
Ar 8.715966e-01 0.000000e+00 0.000000e+00
1
Step 291000
Ar 6.790974e-01 0.000000e+00 0.000000e+00
1
Step 292000
Ar 6.782720e-01 0.000000e+00 0.000000e+00
1
Step 293000
Ar 6.733255e-01 0.000000e+00 0.000000e+00
1
Step 294000
Ar 6.759962e-01 0.000000e+00 0.000000e+00
1
Step 295000
Ar 6.747678e-01 0.000000e+00 0.000000e+00
1
Step 296000
Ar 7.345143e-01 0.000000e+00 0.000000e+00
1
Step 297000
Ar 7.397365e-01 0.000000e+00 0.000000e+00
1
Step 298000
Ar 7.420775e-01 0.000000e+00 0.000000e+00
1
Step 299000
Ar 7.424412e-01 0.000000e+00 0.000000e+00
1
Step 300000
Ar 7.396991e-01 0.000000e+00 0.000000e+00
1
Step 301000
Ar -1.008206e+00 0.000000e+00 0.000000e+00
1
Step 302000
Ar -1.026540e+00 0.000000e+00 0.000000e+00
1
Step 303000
Ar -9.416083e-01 0.000000e+00 0.000000e+00
1
Step 304000
Ar -9.913477e-01 0.000000e+00 0.000000e+00
1
Step 305000
Ar -1.218820e+00 0.000000e+00 0.000000e+00
1
Step 306000
Ar -9.970811e-01 0.000000e+00 0.000000e+00
1
Step 307000
Ar -1.142273e+00 0.000000e+00 0.000000e+00
1
Step 308000
Ar -8.954072e-01 0.000000e+00 0.000000e+00
1
Step 309000
Ar -1.095598e+00 0.000000e+00 0.000000e+00
1
Step 310000
Ar -1.020636e+00 0.000000e+00 0.000000e+00
1
Step 311000
Ar -1.053862e+00 0.000000e+00 0.000000e+00
1
Step 312000
Ar -1.139031e+00 0.000000e+00 0.000000e+00
1
Step 313000
Ar -1.069898e+00 0.000000e+00 0.000000e+00
1
Step 314000
Ar -1.105994e+00 0.000000e+00 0.000000e+00
1
Step 315000
Ar -1.122591e+00 0.000000e+00 0.000000e+00
1
Step 316000
Ar -1.042461e+00 0.000000e+00 0.000000e+00
1
Step 317000
Ar -1.110817e+00 0.000000e+00 0.000000e+00
1
Step 318000
Ar -1.049423e+00 0.000000e+00 0.000000e+00
1
Step 319000
Ar -1.044676e+00 0.000000e+00 0.000000e+00
1
Step 320000
Ar -1.060074e+00 0.000000e+00 0.000000e+00
1
Step 321000
Ar -1.077747e+00 0.000000e+00 0.000000e+00
1
Step 322000
Ar -1.103560e+00 0.000000e+00 0.000000e+00
1
Step 323000
Ar -1.078008e+00 0.000000e+00 0.000000e+00
1
Step 324000
Ar -1.099983e+00 0.000000e+00 0.000000e+00
1
Step 325000
Ar -1.095542e+00 0.000000e+00 0.000000e+00
1
Step 326000
Ar -1.069867e+00 0.000000e+00 0.000000e+00
1
Step 327000
Ar -1.075530e+00 0.000000e+00 0.000000e+00
1
Step 328000
Ar -1.075212e+00 0.000000e+00 0.000000e+00
1
Step 329000
Ar -1.079375e+00 0.000000e+00 0.000000e+00
1
Step 330000
Ar -1.077273e+00 0.000000e+00 0.000000e+00
1
Step 331000
Ar -1.184356e+00 0.000000e+00 0.000000e+00
1
Step 332000
Ar -1.138491e+00 0.000000e+00 0.000000e+00
1
Step 333000
Ar -1.164270e+00 0.000000e+00 0.000000e+00
1
Step 334000
Ar -1.149454e+00 0.000000e+00 0.000000e+00
1
Step 335000
Ar -1.198559e+00 0.000000e+00 0.000000e+00
1
Step 336000
Ar -1.205280e+00 0.000000e+00 0.000000e+00
1
Step 337000
Ar -1.247679e+00 0.000000e+00 0.000000e+00
1
Step 338000
Ar -1.266176e+00 0.000000e+00 0.000000e+00
1
Step 339000
Ar -1.234415e+00 0.000000e+00 0.000000e+00
1
Step 340000
Ar -1.258629e+00 0.000000e+00 0.000000e+00
1
Step 341000
Ar -1.353610e+00 0.000000e+00 0.000000e+00
1
Step 342000
Ar -1.293825e+00 0.000000e+00 0.000000e+00
1
Step 343000
Ar -1.279325e+00 0.000000e+00 0.000000e+00
1
Step 344000
Ar -1.324317e+00 0.000000e+00 0.000000e+00
1
Step 345000
Ar -1.299618e+00 0.000000e+00 0.000000e+00
1
Step 346000
Ar -1.181130e+00 0.000000e+00 0.000000e+00
1
Step 347000
Ar -1.139699e+00 0.000000e+00 0.000000e+00
1
Step 348000
Ar -1.164143e+00 0.000000e+00 0.000000e+00
1
Step 349000
Ar -1.169715e+00 0.000000e+00 0.000000e+00
1
Step 350000
Ar -1.149604e+00 0.000000e+00 0.000000e+00
1
Step 351000
Ar -7.648194e-01 0.000000e+00 0.000000e+00
1
Step 352000
Ar -9.458391e-01 0.000000e+00 0.000000e+00
1
Step 353000
Ar -8.264265e-01 0.000000e+00 0.000000e+00
1
Step 354000
Ar -8.567254e-01 0.000000e+00 0.000000e+00
1
Step 355000
Ar -7.450524e-01 0.000000e+00 0.000000e+00
1
Step 356000
Ar -6.725976e-01 0.000000e+00 0.000000e+00
1
Step 357000
Ar -7.005046e-01 0.000000e+00 0.000000e+00
1
Step 358000
Ar -6.037283e-01 0.000000e+00 0.000000e+00
1
Step 359000
Ar -5.026374e-01 0.000000e+00 0.000000e+00
1
Step 360000
Ar -6.189789e-01 0.000000e+00 0.000000e+00
1
Step 361000
Ar -5.187588e-01 0.000000e+00 0.000000e+00
1
Step 362000
Ar -3.022975e-01 0.000000e+00 0.000000e+00
1
Step 363000
Ar -5.931509e-01 0.000000e+00 0.000000e+00
1
Step 364000
Ar -5.459807e-01 0.000000e+00 0.000000e+00
1
Step 365000
Ar -5.865532e-01 0.000000e+00 0.000000e+00
1
Step 366000
Ar -7.830951e-01 0.000000e+00 0.000000e+00
1
Step 367000
Ar -8.039076e-01 0.000000e+00 0.000000e+00
1
Step 368000
Ar -8.874831e-01 0.000000e+00 0.000000e+00
1
Step 369000
Ar -9.318531e-01 0.000000e+00 0.000000e+00
1
Step 370000
Ar -8.568585e-01 0.000000e+00 0.000000e+00
1
Step 371000
Ar -8.163765e-01 0.000000e+00 0.000000e+00
1
Step 372000
Ar -7.733743e-01 0.000000e+00 0.000000e+00
1
Step 373000
Ar -7.698786e-01 0.000000e+00 0.000000e+00
1
Step 374000
Ar -7.598577e-01 0.000000e+00 0.000000e+00
1
Step 375000
Ar -8.320508e-01 0.000000e+00 0.000000e+00
1
Step 376000
Ar -7.989704e-01 0.000000e+00 0.000000e+00
1
Step 377000
Ar -7.879488e-01 0.000000e+00 0.000000e+00
1
Step 378000
Ar -7.788710e-01 0.000000e+00 0.000000e+00
1
Step 379000
Ar -7.876491e-01 0.000000e+00 0.000000e+00
1
Step 380000
Ar -8.046602e-01 0.000000e+00 0.000000e+00
1
Step 381000
Ar -7.013922e-01 0.000000e+00 0.000000e+00
1
Step 382000
Ar -7.246826e-01 0.000000e+00 0.000000e+00
1
Step 383000
Ar -6.620965e-01 0.000000e+00 0.000000e+00
1
Step 384000
Ar -6.743441e-01 0.000000e+00 0.000000e+00
1
Step 385000
Ar -6.727247e-01 0.000000e+00 0.000000e+00
1
Step 386000
Ar -6.332847e-01 0.000000e+00 0.000000e+00
1
Step 387000
Ar -6.397743e-01 0.000000e+00 0.000000e+00
1
Step 388000
Ar -6.515608e-01 0.000000e+00 0.000000e+00
1
Step 389000
Ar -6.486729e-01 0.000000e+00 0.000000e+00
1
Step 390000
Ar -6.484140e-01 0.000000e+00 0.000000e+00
1
Step 391000
Ar -6.453631e-01 0.000000e+00 0.000000e+00
1
Step 392000
Ar -6.329990e-01 0.000000e+00 0.000000e+00
1
Step 393000
Ar -6.301496e-01 0.000000e+00 0.000000e+00
1
Step 394000
Ar -6.349051e-01 0.000000e+00 0.000000e+00
1
Step 395000
Ar -6.329196e-01 0.000000e+00 0.000000e+00
1
Step 396000
Ar -7.185616e-01 0.000000e+00 0.000000e+00
1
Step 397000
Ar -7.298668e-01 0.000000e+00 0.000000e+00
1
Step 398000
Ar -7.348603e-01 0.000000e+00 0.000000e+00
1
Step 399000
Ar -6.868564e-01 0.000000e+00 0.000000e+00
1
Step 400000
Ar -7.273857e-01 0.000000e+00 0.000000e+00
1
Step 401000
Ar -7.037525e-01 0.000000e+00 0.000000e+00
1
Step 402000
Ar -7.000590e-01 0.000000e+00 0.000000e+00
1
Step 403000
Ar -7.141001e-01 0.000000e+00 0.000000e+00
1
Step 404000
Ar -7.115819e-01 0.000000e+00 0.000000e+00
1
Step 405000
Ar -7.141170e-01 0.000000e+00 0.000000e+00
1
Step 406000
Ar -6.599015e-01 0.000000e+00 0.000000e+00
1
Step 407000
Ar -6.581326e-01 0.000000e+00 0.000000e+00
1
Step 408000
Ar -6.539592e-01 0.000000e+00 0.000000e+00
1
Step 409000
Ar -6.626046e-01 0.000000e+00 0.000000e+00
1
Step 410000
Ar -6.637529e-01 0.000000e+00 0.000000e+00
1
Step 411000
Ar -2.609303e-01 0.000000e+00 0.000000e+00
1
Step 412000
Ar -5.251284e-01 0.000000e+00 0.000000e+00
1
Step 413000
Ar -5.548857e-01 0.000000e+00 0.000000e+00
1
Step 414000
Ar -4.952872e-01 0.000000e+00 0.000000e+00
1
Step 415000
Ar -5.198139e-01 0.000000e+00 0.000000e+00
1
Step 416000
Ar 5.986774e-01 0.000000e+00 0.000000e+00
1
Step 417000
Ar 5.786037e-01 0.000000e+00 0.000000e+00
1
Step 418000
Ar 3.151058e-01 0.000000e+00 0.000000e+00
1
Step 419000
Ar 5.218542e-01 0.000000e+00 0.000000e+00
1
Step 420000
Ar 6.057893e-01 0.000000e+00 0.000000e+00
1
Step 421000
Ar 1.564158e-01 0.000000e+00 0.000000e+00
1
Step 422000
Ar -4.613699e-01 0.000000e+00 0.000000e+00
1
Step 423000
Ar -3.259161e-01 0.000000e+00 0.000000e+00
1
Step 424000
Ar -3.253419e-01 0.000000e+00 0.000000e+00
1
Step 425000
Ar -4.834169e-01 0.000000e+00 0.000000e+00
1
Step 426000
Ar 4.574226e-01 0.000000e+00 0.000000e+00
1
Step 427000
Ar 5.477885e-01 0.000000e+00 0.000000e+00
1
Step 428000
Ar 5.861627e-01 0.000000e+00 0.000000e+00
1
Step 429000
Ar 4.949040e-01 0.000000e+00 0.000000e+00
1
Step 430000
Ar 5.501050e-01 0.000000e+00 0.000000e+00
1
Step 431000
Ar 7.093002e-01 0.000000e+00 0.000000e+00
1
Step 432000
Ar 7.100810e-01 0.000000e+00 0.000000e+00
1
Step 433000
Ar 7.086755e-01 0.000000e+00 0.000000e+00
1
Step 434000
Ar 7.119443e-01 0.000000e+00 0.000000e+00
1
Step 435000
Ar 7.145591e-01 0.000000e+00 0.000000e+00
1
Step 436000
Ar 7.025096e-01 0.000000e+00 0.000000e+00
1
Step 437000
Ar 6.976264e-01 0.000000e+00 0.000000e+00
1
Step 438000
Ar 6.962924e-01 0.000000e+00 0.000000e+00
1
Step 439000
Ar 8.451211e-01 0.000000e+00 0.000000e+00
1
Step 440000
Ar 8.451592e-01 0.000000e+00 0.000000e+00
1
Step 441000
Ar 3.101188e-01 0.000000e+00 0.000000e+00
1
Step 442000
Ar 4.331928e-01 0.000000e+00 0.000000e+00
1
Step 443000
Ar -4.319374e-01 0.000000e+00 0.000000e+00
1
Step 444000
Ar -4.431444e-01 0.000000e+00 0.000000e+00
1
Step 445000
Ar -3.606548e-01 0.000000e+00 0.000000e+00
1
Step 446000
Ar 4.823179e-01 0.000000e+00 0.000000e+00
1
Step 447000
Ar 4.621702e-01 0.000000e+00 0.000000e+00
1
Step 448000
Ar 3.607912e-01 0.000000e+00 0.000000e+00
1
Step 449000
Ar 5.370515e-01 0.000000e+00 0.000000e+00
1
Step 450000
Ar 4.661033e-01 0.000000e+00 0.000000e+00
1
Step 451000
Ar 4.976265e-01 0.000000e+00 0.000000e+00
1
Step 452000
Ar 5.136635e-01 0.000000e+00 0.000000e+00
1
Step 453000
Ar 4.980968e-01 0.000000e+00 0.000000e+00
1
Step 454000
Ar 5.137136e-01 0.000000e+00 0.000000e+00
1
Step 455000
Ar 4.805818e-01 0.000000e+00 0.000000e+00
1
Step 456000
Ar 6.299292e-01 0.000000e+00 0.000000e+00
1
Step 457000
Ar 5.318689e-01 0.000000e+00 0.000000e+00
1
Step 458000
Ar 5.397311e-01 0.000000e+00 0.000000e+00
1
Step 459000
Ar 5.412519e-01 0.000000e+00 0.000000e+00
1
Step 460000
Ar 5.111596e-01 0.000000e+00 0.000000e+00
1
Step 461000
Ar 1.059188e+00 0.000000e+00 0.000000e+00
1
Step 462000
Ar 8.919987e-01 0.000000e+00 0.000000e+00
1
Step 463000
Ar 8.959147e-01 0.000000e+00 0.000000e+00
1
Step 464000
Ar 8.964352e-01 0.000000e+00 0.000000e+00
1
Step 465000
Ar 8.929146e-01 0.000000e+00 0.000000e+00
1
Step 466000
Ar 9.559783e-01 0.000000e+00 0.000000e+00
1
Step 467000
Ar 9.534023e-01 0.000000e+00 0.000000e+00
1
Step 468000
Ar 9.231586e-01 0.000000e+00 0.000000e+00
1
Step 469000
Ar 1.139316e+00 0.000000e+00 0.000000e+00
1
Step 470000
Ar 1.142704e+00 0.000000e+00 0.000000e+00
1
Step 471000
Ar 2.623863e-01 0.000000e+00 0.000000e+00
1
Step 472000
Ar 3.551746e-01 0.000000e+00 0.000000e+00
1
Step 473000
Ar 4.474288e-01 0.000000e+00 0.000000e+00
1
Step 474000
Ar 4.439230e-01 0.000000e+00 0.000000e+00
1
Step 475000
Ar 3.752001e-01 0.000000e+00 0.000000e+00
1
Step 476000
Ar 3.280415e-01 0.000000e+00 0.000000e+00
1
Step 477000
Ar 3.269391e-01 0.000000e+00 0.000000e+00
1
Step 478000
Ar 3.636436e-01 0.000000e+00 0.000000e+00
1
Step 479000
Ar -5.476537e-02 0.000000e+00 0.000000e+00
1
Step 480000
Ar -3.267115e-01 0.000000e+00 0.000000e+00
1
Step 481000
Ar -3.460202e-01 0.000000e+00 0.000000e+00
1
Step 482000
Ar -3.432591e-01 0.000000e+00 0.000000e+00
1
Step 483000
Ar -3.427912e-01 0.000000e+00 0.000000e+00
1
Step 484000
Ar -3.490301e-01 0.000000e+00 0.000000e+00
1
Step 485000
Ar -3.478297e-01 0.000000e+00 0.000000e+00
1
Step 486000
Ar 3.378491e-01 0.000000e+00 0.000000e+00
1
Step 487000
Ar 2.428429e-01 0.000000e+00 0.000000e+00
1
Step 488000
Ar 3.452916e-01 0.000000e+00 0.000000e+00
1
Step 489000
Ar 7.794826e-02 0.000000e+00 0.000000e+00
1
Step 490000
Ar 3.255876e-01 0.000000e+00 0.000000e+00
1
Step 491000
Ar 3.357940e-01 0.000000e+00 0.000000e+00
1
Step 492000
Ar 3.527410e-01 0.000000e+00 0.000000e+00
1
Step 493000
Ar 3.426025e-01 0.000000e+00 0.000000e+00
1
Step 494000
Ar 3.393301e-01 0.000000e+00 0.000000e+00
1
Step 495000
Ar 3.525979e-01 0.000000e+00 0.000000e+00
1
Step 496000
Ar 3.637716e-01 0.000000e+00 0.000000e+00
1
Step 497000
Ar 3.647005e-01 0.000000e+00 0.000000e+00
1
Step 498000
Ar 3.619214e-01 0.000000e+00 0.000000e+00
1
Step 499000
Ar 3.620677e-01 0.000000e+00 0.000000e+00
1
Step 500000
Ar 3.644821e-01 0.000000e+00 0.000000e+00
1
Step 501000
Ar -3.011562e-01 0.000000e+00 0.000000e+00
1
Step 502000
Ar 1.162024e-02 0.000000e+00 0.000000e+00
1
Step 503000
Ar -2.830642e-01 0.000000e+00 0.000000e+00
1
Step 504000
Ar -1.201641e-01 0.000000e+00 0.000000e+00
1
Step 505000
Ar -2.648151e-01 0.000000e+00 0.000000e+00
1
Step 506000
Ar -3.052321e-01 0.000000e+00 0.000000e+00
1
Step 507000
Ar -2.970973e-01 0.000000e+00 0.000000e+00
1
Step 508000
Ar -2.889191e-01 0.000000e+00 0.000000e+00
1
Step 509000
Ar -3.163303e-01 0.000000e+00 0.000000e+00
1
Step 510000
Ar -2.802846e-01 0.000000e+00 0.000000e+00
1
Step 511000
Ar 2.594071e-01 0.000000e+00 0.000000e+00
1
Step 512000
Ar 2.339524e-01 0.000000e+00 0.000000e+00
1
Step 513000
Ar 2.837704e-01 0.000000e+00 0.000000e+00
1
Step 514000
Ar -1.393081e-01 0.000000e+00 0.000000e+00
1
Step 515000
Ar 2.476261e-01 0.000000e+00 0.000000e+00
1
Step 516000
Ar 1.299524e-01 0.000000e+00 0.000000e+00
1
Step 517000
Ar 1.827684e-01 0.000000e+00 0.000000e+00
1
Step 518000
Ar -1.823819e-01 0.000000e+00 0.000000e+00
1
Step 519000
Ar -4.639866e-02 0.000000e+00 0.000000e+00
1
Step 520000
Ar 4.322470e-02 0.000000e+00 0.000000e+00
1
Step 521000
Ar -2.489531e-01 0.000000e+00 0.000000e+00
1
Step 522000
Ar 1.495519e-02 0.000000e+00 0.000000e+00
1
Step 523000
Ar -1.413335e-01 0.000000e+00 0.000000e+00
1
Step 524000
Ar -2.411553e-01 0.000000e+00 0.000000e+00
1
Step 525000
Ar 1.719604e-02 0.000000e+00 0.000000e+00
1
Step 526000
Ar 6.054754e-02 0.000000e+00 0.000000e+00
1
Step 527000
Ar 2.295409e-01 0.000000e+00 0.000000e+00
1
Step 528000
Ar 1.566753e-01 0.000000e+00 0.000000e+00
1
Step 529000
Ar 2.193430e-01 0.000000e+00 0.000000e+00
1
Step 530000
Ar 1.836586e-01 0.000000e+00 0.000000e+00
1
Step 531000
Ar 2.140342e-01 0.000000e+00 0.000000e+00
1
Step 532000
Ar 2.056721e-01 0.000000e+00 0.000000e+00
1
Step 533000
Ar 2.088645e-01 0.000000e+00 0.000000e+00
1
Step 534000
Ar 2.226789e-01 0.000000e+00 0.000000e+00
1
Step 535000
Ar 2.191875e-01 0.000000e+00 0.000000e+00
1
Step 536000
Ar 1.381173e-01 0.000000e+00 0.000000e+00
1
Step 537000
Ar 1.388766e-01 0.000000e+00 0.000000e+00
1
Step 538000
Ar 9.578052e-02 0.000000e+00 0.000000e+00
1
Step 539000
Ar 1.277574e-01 0.000000e+00 0.000000e+00
1
Step 540000
Ar 1.066590e-01 0.000000e+00 0.000000e+00
1
Step 541000
Ar 1.547377e-01 0.000000e+00 0.000000e+00
1
Step 542000
Ar 1.721038e-01 0.000000e+00 0.000000e+00
1
Step 543000
Ar 1.450956e-01 0.000000e+00 0.000000e+00
1
Step 544000
Ar 1.250684e-01 0.000000e+00 0.000000e+00
1
Step 545000
Ar 1.674235e-01 0.000000e+00 0.000000e+00
1
Step 546000
Ar 2.850510e-01 0.000000e+00 0.000000e+00
1
Step 547000
Ar 2.823541e-01 0.000000e+00 0.000000e+00
1
Step 548000
Ar 2.612523e-01 0.000000e+00 0.000000e+00
1
Step 549000
Ar 2.645663e-01 0.000000e+00 0.000000e+00
1
Step 550000
Ar 2.617653e-01 0.000000e+00 0.000000e+00
1
Step 551000
Ar 3.060184e-01 0.000000e+00 0.000000e+00
1
Step 552000
Ar 2.713275e-01 0.000000e+00 0.000000e+00
1
Step 553000
Ar 3.006254e-01 0.000000e+00 0.000000e+00
1
Step 554000
Ar 2.996707e-01 0.000000e+00 0.000000e+00
1
Step 555000
Ar 3.103096e-01 0.000000e+00 0.000000e+00
1
Step 556000
Ar -6.080700e-01 0.000000e+00 0.000000e+00
1
Step 557000
Ar -1.310476e+00 0.000000e+00 0.000000e+00
1
Step 558000
Ar -1.340866e+00 0.000000e+00 0.000000e+00
1
Step 559000
Ar -1.326901e+00 0.000000e+00 0.000000e+00
1
Step 560000
Ar -1.325792e+00 0.000000e+00 0.000000e+00
1
Step 561000
Ar -1.109509e+00 0.000000e+00 0.000000e+00
1
Step 562000
Ar -1.102899e+00 0.000000e+00 0.000000e+00
1
Step 563000
Ar -1.107475e+00 0.000000e+00 0.000000e+00
1
Step 564000
Ar -1.107680e+00 0.000000e+00 0.000000e+00
1
Step 565000
Ar -1.110322e+00 0.000000e+00 0.000000e+00
1
Step 566000
Ar -9.903696e-01 0.000000e+00 0.000000e+00
1
Step 567000
Ar -9.864749e-01 0.000000e+00 0.000000e+00
1
Step 568000
Ar -9.851060e-01 0.000000e+00 0.000000e+00
1
Step 569000
Ar -9.631524e-01 0.000000e+00 0.000000e+00
1
Step 570000
Ar -9.009209e-01 0.000000e+00 0.000000e+00
1
Step 571000
Ar -9.312171e-01 0.000000e+00 0.000000e+00
1
Step 572000
Ar -9.348048e-01 0.000000e+00 0.000000e+00
1
Step 573000
Ar -1.002343e+00 0.000000e+00 0.000000e+00
1
Step 574000
Ar -9.804557e-01 0.000000e+00 0.000000e+00
1
Step 575000
Ar -9.313509e-01 0.000000e+00 0.000000e+00
1
Step 576000
Ar -9.157661e-01 0.000000e+00 0.000000e+00
1
Step 577000
Ar -9.105922e-01 0.000000e+00 0.000000e+00
1
Step 578000
Ar -9.120623e-01 0.000000e+00 0.000000e+00
1
Step 579000
Ar -9.140509e-01 0.000000e+00 0.000000e+00
1
Step 580000
Ar -9.214873e-01 0.000000e+00 0.000000e+00
1
Step 581000
Ar -8.482673e-01 0.000000e+00 0.000000e+00
1
Step 582000
Ar -8.437480e-01 0.000000e+00 0.000000e+00
1
Step 583000
Ar -8.424088e-01 0.000000e+00 0.000000e+00
1
Step 584000
Ar -8.415222e-01 0.000000e+00 0.000000e+00
1
Step 585000
Ar -8.456875e-01 0.000000e+00 0.000000e+00
1
Step 586000
Ar -9.078690e-01 0.000000e+00 0.000000e+00
1
Step 587000
Ar -8.874251e-01 0.000000e+00 0.000000e+00
1
Step 588000
Ar -8.889374e-01 0.000000e+00 0.000000e+00
1
Step 589000
Ar -8.845672e-01 0.000000e+00 0.000000e+00
1
Step 590000
Ar -8.733964e-01 0.000000e+00 0.000000e+00
1
Step 591000
Ar -8.208975e-01 0.000000e+00 0.000000e+00
1
Step 592000
Ar -8.177284e-01 0.000000e+00 0.000000e+00
1
Step 593000
Ar -8.170950e-01 0.000000e+00 0.000000e+00
1
Step 594000
Ar -8.205667e-01 0.000000e+00 0.000000e+00
1
Step 595000
Ar -8.207561e-01 0.000000e+00 0.000000e+00
1
Step 596000
Ar -7.586435e-01 0.000000e+00 0.000000e+00
1
Step 597000
Ar -7.848956e-01 0.000000e+00 0.000000e+00
1
Step 598000
Ar -7.728898e-01 0.000000e+00 0.000000e+00
1
Step 599000
Ar -7.870848e-01 0.000000e+00 0.000000e+00
1
Step 600000
Ar -7.602918e-01 0.000000e+00 0.000000e+00
1
Step 601000
Ar -7.841303e-01 0.000000e+00 0.000000e+00
1
Step 602000
Ar -7.864332e-01 0.000000e+00 0.000000e+00
1
Step 603000
Ar -7.867177e-01 0.000000e+00 0.000000e+00
1
Step 604000
Ar -7.808867e-01 0.000000e+00 0.000000e+00
1
Step 605000
Ar -7.866422e-01 0.000000e+00 0.000000e+00
1
Step 606000
Ar -9.082998e-01 0.000000e+00 0.000000e+00
1
Step 607000
Ar -9.126810e-01 0.000000e+00 0.000000e+00
1
Step 608000
Ar -9.087927e-01 0.000000e+00 0.000000e+00
1
Step 609000
Ar -9.106687e-01 0.000000e+00 0.000000e+00
1
Step 610000
Ar -8.872318e-01 0.000000e+00 0.000000e+00
1
Step 611000
Ar -1.174075e+00 0.000000e+00 0.000000e+00
1
Step 612000
Ar -1.161218e+00 0.000000e+00 0.000000e+00
1
Step 613000
Ar -1.176144e+00 0.000000e+00 0.000000e+00
1
Step 614000
Ar -1.185708e+00 0.000000e+00 0.000000e+00
1
Step 615000
Ar -1.160377e+00 0.000000e+00 0.000000e+00
1
Step 616000
Ar -7.631659e-02 0.000000e+00 0.000000e+00
1
Step 617000
Ar -2.492658e-01 0.000000e+00 0.000000e+00
1
Step 618000
Ar -2.418970e-01 0.000000e+00 0.000000e+00
1
Step 619000
Ar -1.287281e-01 0.000000e+00 0.000000e+00
1
Step 620000
Ar -2.038066e-02 0.000000e+00 0.000000e+00
1
Step 621000
Ar 7.071152e-02 0.000000e+00 0.000000e+00
1
Step 622000
Ar 5.495954e-02 0.000000e+00 0.000000e+00
1
Step 623000
Ar 7.485523e-02 0.000000e+00 0.000000e+00
1
Step 624000
Ar 6.927962e-02 0.000000e+00 0.000000e+00
1
Step 625000
Ar 7.243374e-02 0.000000e+00 0.000000e+00
1
Step 626000
Ar 5.244629e-01 0.000000e+00 0.000000e+00
1
Step 627000
Ar 5.280811e-01 0.000000e+00 0.000000e+00
1
Step 628000
Ar 5.293197e-01 0.000000e+00 0.000000e+00
1
Step 629000
Ar 5.235715e-01 0.000000e+00 0.000000e+00
1
Step 630000
Ar 5.340878e-01 0.000000e+00 0.000000e+00
1
Step 631000
Ar 5.218162e-01 0.000000e+00 0.000000e+00
1
Step 632000
Ar 5.196906e-01 0.000000e+00 0.000000e+00
1
Step 633000
Ar 5.221426e-01 0.000000e+00 0.000000e+00
1
Step 634000
Ar 5.238129e-01 0.000000e+00 0.000000e+00
1
Step 635000
Ar 5.211744e-01 0.000000e+00 0.000000e+00
1
Step 636000
Ar 7.017509e-01 0.000000e+00 0.000000e+00
1
Step 637000
Ar 7.065492e-01 0.000000e+00 0.000000e+00
1
Step 638000
Ar 7.011117e-01 0.000000e+00 0.000000e+00
1
Step 639000
Ar 6.982298e-01 0.000000e+00 0.000000e+00
1
Step 640000
Ar 7.029145e-01 0.000000e+00 0.000000e+00
1
Step 641000
Ar 7.318446e-01 0.000000e+00 0.000000e+00
1
Step 642000
Ar 1.063867e+00 0.000000e+00 0.000000e+00
1
Step 643000
Ar 1.063402e+00 0.000000e+00 0.000000e+00
1
Step 644000
Ar 1.347721e+00 0.000000e+00 0.000000e+00
1
Step 645000
Ar 1.347968e+00 0.000000e+00 0.000000e+00
1
Step 646000
Ar 1.188786e+00 0.000000e+00 0.000000e+00
1
Step 647000
Ar 1.178432e+00 0.000000e+00 0.000000e+00
1
Step 648000
Ar 1.196124e+00 0.000000e+00 0.000000e+00
1
Step 649000
Ar 1.195084e+00 0.000000e+00 0.000000e+00
1
Step 650000
Ar 1.187214e+00 0.000000e+00 0.000000e+00
1
Step 651000