1
Step 120000
Ar 1.105180e+00 0.000000e+00 0.000000e+00
1
Step 121000
Ar 9.752686e-01 0.000000e+00 0.000000e+00
1
Step 122000
Ar 1.046766e+00 0.000000e+00 0.000000e+00
1
Step 123000
Ar 1.100986e+00 0.000000e+00 0.000000e+00
1
Step 124000
Ar 1.120591e+00 0.000000e+00 0.000000e+00
1
Step 125000
Ar 8.051928e-01 0.000000e+00 0.000000e+00
1
Step 126000
Ar 1.013154e+00 0.000000e+00 0.000000e+00
1
Step 127000
Ar 1.032704e+00 0.000000e+00 0.000000e+00
1
Step 128000
Ar 1.001016e+00 0.000000e+00 0.000000e+00
1
Step 129000
Ar 8.968565e-01 0.000000e+00 0.000000e+00
1
Step 130000
Ar 1.085113e+00 0.000000e+00 0.000000e+00
1
Step 131000
Ar 9.854613e-01 0.000000e+00 0.000000e+00
1
Step 132000
Ar 1.000736e+00 0.000000e+00 0.000000e+00
1
Step 133000
Ar 1.020627e+00 0.000000e+00 0.000000e+00
1
Step 134000
Ar 9.388966e-01 0.000000e+00 0.000000e+00
1
Step 135000
Ar 8.319403e-01 0.000000e+00 0.000000e+00
1
Step 136000
Ar 7.521339e-01 0.000000e+00 0.000000e+00
1
Step 137000
Ar 7.943675e-01 0.000000e+00 0.000000e+00
1
Step 138000
Ar 8.044536e-01 0.000000e+00 0.000000e+00
1
Step 139000
Ar 7.630825e-01 0.000000e+00 0.000000e+00
1
Step 140000
Ar 7.641198e-01 0.000000e+00 0.000000e+00
1
Step 141000
Ar 7.812725e-01 0.000000e+00 0.000000e+00
1
Step 142000
Ar 7.204048e-01 0.000000e+00 0.000000e+00
1
Step 143000
Ar 7.649374e-01 0.000000e+00 0.000000e+00
1
Step 144000
Ar 7.313271e-01 0.000000e+00 0.000000e+00
1
Step 145000
Ar 9.279784e-01 0.000000e+00 0.000000e+00
1
Step 146000
Ar 6.315578e-01 0.000000e+00 0.000000e+00
1
Step 147000
Ar 8.110680e-01 0.000000e+00 0.000000e+00
1
Step 148000
Ar 8.440726e-01 0.000000e+00 0.000000e+00
1
Step 149000
Ar 8.855156e-01 0.000000e+00 0.000000e+00
1
Step 150000
Ar 8.646168e-01 0.000000e+00 0.000000e+00
1
Step 151000
Ar 9.015238e-01 0.000000e+00 0.000000e+00
1
Step 152000
Ar 7.720347e-01 0.000000e+00 0.000000e+00
1
Step 153000
Ar 7.505403e-01 0.000000e+00 0.000000e+00
1
Step 154000
Ar 7.379237e-01 0.000000e+00 0.000000e+00
1
Step 155000
Ar 8.203339e-01 0.000000e+00 0.000000e+00
1
Step 156000
Ar 8.315359e-01 0.000000e+00 0.000000e+00
1
Step 157000
Ar 8.052796e-01 0.000000e+00 0.000000e+00
1
Step 158000
Ar 8.042481e-01 0.000000e+00 0.000000e+00
1
Step 159000
Ar 1.204823e+00 0.000000e+00 0.000000e+00
1
Step 160000
Ar 1.274784e+00 0.000000e+00 0.000000e+00
1
Step 161000
Ar 1.279688e+00 0.000000e+00 0.000000e+00
1
Step 162000
Ar 1.286858e+00 0.000000e+00 0.000000e+00
1
Step 163000
Ar 1.240157e+00 0.000000e+00 0.000000e+00
1
Step 164000
Ar 1.158982e+00 0.000000e+00 0.000000e+00
1
Step 165000
Ar 1.164592e+00 0.000000e+00 0.000000e+00
1
Step 166000
Ar 1.189235e+00 0.000000e+00 0.000000e+00
1
Step 167000
Ar 1.230927e+00 0.000000e+00 0.000000e+00
1
Step 168000
Ar 1.204451e+00 0.000000e+00 0.000000e+00
1
Step 169000
Ar 1.063345e+00 0.000000e+00 0.000000e+00
1
Step 170000
Ar 1.091255e+00 0.000000e+00 0.000000e+00
1
Step 171000
Ar 1.021537e+00 0.000000e+00 0.000000e+00
1
Step 172000
Ar 1.000660e+00 0.000000e+00 0.000000e+00
1
Step 173000
Ar 9.699997e-01 0.000000e+00 0.000000e+00
1
Step 174000
Ar 9.817021e-01 0.000000e+00 0.000000e+00
1
Step 175000
Ar 1.106063e+00 0.000000e+00 0.000000e+00
1
Step 176000
Ar 1.104553e+00 0.000000e+00 0.000000e+00
1
Step 177000
Ar 1.061603e+00 0.000000e+00 0.000000e+00
1
Step 178000
Ar 9.267178e-01 0.000000e+00 0.000000e+00
1
Step 179000
Ar 1.112137e+00 0.000000e+00 0.000000e+00
1
Step 180000
Ar 1.148333e+00 0.000000e+00 0.000000e+00
1
Step 181000
Ar 1.205793e+00 0.000000e+00 0.000000e+00
1
Step 182000
Ar 1.339072e+00 0.000000e+00 0.000000e+00
1
Step 183000
Ar 1.321018e+00 0.000000e+00 0.000000e+00
1
Step 184000
Ar 1.044106e+00 0.000000e+00 0.000000e+00
1
Step 185000
Ar 1.119961e+00 0.000000e+00 0.000000e+00
1
Step 186000
Ar 1.083387e+00 0.000000e+00 0.000000e+00
1
Step 187000
Ar 9.848185e-01 0.000000e+00 0.000000e+00
1
Step 188000
Ar 9.791666e-01 0.000000e+00 0.000000e+00
1
Step 189000
Ar 9.737226e-01 0.000000e+00 0.000000e+00
1
Step 190000
Ar 9.995073e-01 0.000000e+00 0.000000e+00
1
Step 191000
Ar 1.044583e+00 0.000000e+00 0.000000e+00
1
Step 192000
Ar 1.054791e+00 0.000000e+00 0.000000e+00
1
Step 193000
Ar 1.059741e+00 0.000000e+00 0.000000e+00
1
Step 194000
Ar 1.249500e+00 0.000000e+00 0.000000e+00
1
Step 195000
Ar 1.252331e+00 0.000000e+00 0.000000e+00
1
Step 196000
Ar 1.355079e+00 0.000000e+00 0.000000e+00
1
Step 197000
Ar 1.380875e+00 0.000000e+00 0.000000e+00
1
Step 198000
Ar 1.399526e+00 0.000000e+00 0.000000e+00
1
Step 199000
Ar 1.126592e+00 0.000000e+00 0.000000e+00
1
Step 200000
Ar 1.075533e+00 0.000000e+00 0.000000e+00
1
Step 201000
Ar 1.060939e+00 0.000000e+00 0.000000e+00
1
Step 202000
Ar 1.058125e+00 0.000000e+00 0.000000e+00
1
Step 203000
Ar 1.420128e+00 0.000000e+00 0.000000e+00
1
Step 204000
Ar 1.163589e+00 0.000000e+00 0.000000e+00
1
Step 205000
Ar 1.154884e+00 0.000000e+00 0.000000e+00
1
Step 206000
Ar 1.187361e+00 0.000000e+00 0.000000e+00
1
Step 207000
Ar 1.157797e+00 0.000000e+00 0.000000e+00
1
Step 208000
Ar 1.164113e+00 0.000000e+00 0.000000e+00
1
Step 209000
Ar 1.145354e+00 0.000000e+00 0.000000e+00
1
Step 210000
Ar 1.161327e+00 0.000000e+00 0.000000e+00
1
Step 211000
Ar 1.309445e+00 0.000000e+00 0.000000e+00
1
Step 212000
Ar 1.312449e+00 0.000000e+00 0.000000e+00
1
Step 213000
Ar 1.360528e+00 0.000000e+00 0.000000e+00
1
Step 214000
Ar 1.326494e+00 0.000000e+00 0.000000e+00
1
Step 215000
Ar 1.371204e+00 0.000000e+00 0.000000e+00
1
Step 216000
Ar 1.249070e+00 0.000000e+00 0.000000e+00
1
Step 217000
Ar 1.264009e+00 0.000000e+00 0.000000e+00
1
Step 218000
Ar 1.276418e+00 0.000000e+00 0.000000e+00
1
Step 219000
Ar 1.151127e+00 0.000000e+00 0.000000e+00
1
Step 220000
Ar 1.143450e+00 0.000000e+00 0.000000e+00
1
Step 221000
Ar 1.329375e+00 0.000000e+00 0.000000e+00
1
Step 222000
Ar 1.358389e+00 0.000000e+00 0.000000e+00
1
Step 223000
Ar 1.323256e+00 0.000000e+00 0.000000e+00
1
Step 224000
Ar 1.431554e+00 0.000000e+00 0.000000e+00
1
Step 225000
Ar 1.434197e+00 0.000000e+00 0.000000e+00
1
Step 226000
Ar 1.429455e+00 0.000000e+00 0.000000e+00
1
Step 227000
Ar 1.468951e+00 0.000000e+00 0.000000e+00
1
Step 228000
Ar 1.402555e+00 0.000000e+00 0.000000e+00
1
Step 229000
Ar 1.432498e+00 0.000000e+00 0.000000e+00
1
Step 230000
Ar 1.469632e+00 0.000000e+00 0.000000e+00
1
Step 231000
Ar 1.504428e+00 0.000000e+00 0.000000e+00
1
Step 232000
Ar 1.473542e+00 0.000000e+00 0.000000e+00
1
Step 233000
Ar 1.471516e+00 0.000000e+00 0.000000e+00
1
Step 234000
Ar 1.449525e+00 0.000000e+00 0.000000e+00
1
Step 235000
Ar 1.268205e+00 0.000000e+00 0.000000e+00
1
Step 236000
Ar 1.271954e+00 0.000000e+00 0.000000e+00
1
Step 237000
Ar 1.225776e+00 0.000000e+00 0.000000e+00
1
Step 238000
Ar 1.249582e+00 0.000000e+00 0.000000e+00
1
Step 239000
Ar 1.260512e+00 0.000000e+00 0.000000e+00
1
Step 240000
Ar 1.172306e+00 0.000000e+00 0.000000e+00
1
Step 241000
Ar 1.135692e+00 0.000000e+00 0.000000e+00
1
Step 242000
Ar 1.125111e+00 0.000000e+00 0.000000e+00
1
Step 243000
Ar 8.408575e-01 0.000000e+00 0.000000e+00
1
Step 244000
Ar 7.673742e-01 0.000000e+00 0.000000e+00
1
Step 245000
Ar 7.695532e-01 0.000000e+00 0.000000e+00
1
Step 246000
Ar 8.249772e-01 0.000000e+00 0.000000e+00
1
Step 247000
Ar 7.296791e-01 0.000000e+00 0.000000e+00
1
Step 248000
Ar 8.224991e-01 0.000000e+00 0.000000e+00
1
Step 249000
Ar 8.386209e-01 0.000000e+00 0.000000e+00
1
Step 250000
Ar 8.448116e-01 0.000000e+00 0.000000e+00
1
Step 251000
Ar 7.396111e-01 0.000000e+00 0.000000e+00
1
Step 252000
Ar 5.525987e-01 0.000000e+00 0.000000e+00
1
Step 253000
Ar 3.783813e-01 0.000000e+00 0.000000e+00
1
Step 254000
Ar 6.773508e-01 0.000000e+00 0.000000e+00
1
Step 255000
Ar 4.109387e-01 0.000000e+00 0.000000e+00
1
Step 256000
Ar 4.384061e-01 0.000000e+00 0.000000e+00
1
Step 257000
Ar 5.800142e-01 0.000000e+00 0.000000e+00
1
Step 258000
Ar 3.518685e-01 0.000000e+00 0.000000e+00
1
Step 259000
Ar 3.906239e-01 0.000000e+00 0.000000e+00
1
Step 260000
Ar 3.836708e-01 0.000000e+00 0.000000e+00
1
Step 261000
Ar 2.789765e-01 0.000000e+00 0.000000e+00
1
Step 262000
Ar 2.822380e-01 0.000000e+00 0.000000e+00
1
Step 263000
Ar -7.955692e-01 0.000000e+00 0.000000e+00
1
Step 264000
Ar -9.728554e-01 0.000000e+00 0.000000e+00
1
Step 265000
Ar -8.150119e-01 0.000000e+00 0.000000e+00
1
Step 266000
Ar -8.990600e-01 0.000000e+00 0.000000e+00
1
Step 267000
Ar -7.659826e-01 0.000000e+00 0.000000e+00
1
Step 268000
Ar -1.075532e+00 0.000000e+00 0.000000e+00
1
Step 269000
Ar -1.060351e+00 0.000000e+00 0.000000e+00
1
Step 270000
Ar -8.790482e-01 0.000000e+00 0.000000e+00
1
Step 271000
Ar -8.310546e-01 0.000000e+00 0.000000e+00
1
Step 272000
Ar -6.474801e-01 0.000000e+00 0.000000e+00
1
Step 273000
Ar -6.698105e-01 0.000000e+00 0.000000e+00
1
Step 274000
Ar -8.417381e-01 0.000000e+00 0.000000e+00
1
Step 275000
Ar -8.621767e-01 0.000000e+00 0.000000e+00
1
Step 276000
Ar -9.634772e-01 0.000000e+00 0.000000e+00
1
Step 277000
Ar -1.010996e+00 0.000000e+00 0.000000e+00
1
Step 278000
Ar -9.759904e-01 0.000000e+00 0.000000e+00
1
Step 279000
Ar -9.825702e-01 0.000000e+00 0.000000e+00
1
Step 280000
Ar -9.027648e-01 0.000000e+00 0.000000e+00
1
Step 281000
Ar -8.990921e-01 0.000000e+00 0.000000e+00
1
Step 282000
Ar -9.028154e-01 0.000000e+00 0.000000e+00
1
Step 283000
Ar -1.197502e+00 0.000000e+00 0.000000e+00
1
Step 284000
Ar -1.035165e+00 0.000000e+00 0.000000e+00
1
Step 285000
Ar -1.082479e+00 0.000000e+00 0.000000e+00
1
Step 286000
Ar -1.145422e+00 0.000000e+00 0.000000e+00
1
Step 287000
Ar -1.210576e+00 0.000000e+00 0.000000e+00
1
Step 288000
Ar -1.133391e+00 0.000000e+00 0.000000e+00
1
Step 289000
Ar -8.482634e-01 0.000000e+00 0.000000e+00
1
Step 290000
Ar -8.436495e-01 0.000000e+00 0.000000e+00
1
Step 291000
Ar -9.104794e-01 0.000000e+00 0.000000e+00
1
Step 292000
Ar -7.835172e-01 0.000000e+00 0.000000e+00
1
Step 293000
Ar -8.519664e-01 0.000000e+00 0.000000e+00
1
Step 294000
Ar -6.849384e-01 0.000000e+00 0.000000e+00
1
Step 295000
Ar -6.953206e-01 0.000000e+00 0.000000e+00
1
Step 296000
Ar -9.372941e-01 0.000000e+00 0.000000e+00
1
Step 297000
Ar -9.426569e-01 0.000000e+00 0.000000e+00
1
Step 298000
Ar -9.434907e-01 0.000000e+00 0.000000e+00
1
Step 299000
Ar -9.371585e-01 0.000000e+00 0.000000e+00
1
Step 300000
Ar -9.420098e-01 0.000000e+00 0.000000e+00
1
Step 301000
Ar -9.394468e-01 0.000000e+00 0.000000e+00
1
Step 302000
Ar -1.071414e+00 0.000000e+00 0.000000e+00
1
Step 303000
Ar -9.718713e-01 0.000000e+00 0.000000e+00
1
Step 304000
Ar -9.725093e-01 0.000000e+00 0.000000e+00
1
Step 305000
Ar -9.711073e-01 0.000000e+00 0.000000e+00
1
Step 306000
Ar -1.002482e+00 0.000000e+00 0.000000e+00
1
Step 307000
Ar -1.048607e+00 0.000000e+00 0.000000e+00
1
Step 308000
Ar -1.047506e+00 0.000000e+00 0.000000e+00
1
Step 309000
Ar -1.338842e+00 0.000000e+00 0.000000e+00
1
Step 310000
Ar -1.383549e+00 0.000000e+00 0.000000e+00
1
Step 311000
Ar -1.116480e+00 0.000000e+00 0.000000e+00
1
Step 312000
Ar -1.105372e+00 0.000000e+00 0.000000e+00
1
Step 313000
Ar -1.283700e+00 0.000000e+00 0.000000e+00
1
Step 314000
Ar -1.269455e+00 0.000000e+00 0.000000e+00
1
Step 315000
Ar -1.205033e+00 0.000000e+00 0.000000e+00
1
Step 316000
Ar -1.231487e+00 0.000000e+00 0.000000e+00
1
Step 317000
Ar -1.197554e+00 0.000000e+00 0.000000e+00
1
Step 318000
Ar -1.176648e+00 0.000000e+00 0.000000e+00
1
Step 319000
Ar -1.244372e+00 0.000000e+00 0.000000e+00
1
Step 320000
Ar -1.249884e+00 0.000000e+00 0.000000e+00
1
Step 321000
Ar -1.160179e+00 0.000000e+00 0.000000e+00
1
Step 322000
Ar -1.240462e+00 0.000000e+00 0.000000e+00
1
Step 323000
Ar -1.370715e+00 0.000000e+00 0.000000e+00
1
Step 324000
Ar -1.085096e+00 0.000000e+00 0.000000e+00
1
Step 325000
Ar -1.123729e+00 0.000000e+00 0.000000e+00
1
Step 326000
Ar -1.089385e+00 0.000000e+00 0.000000e+00
1
Step 327000
Ar -5.785256e-01 0.000000e+00 0.000000e+00
1
Step 328000
Ar -6.817012e-01 0.000000e+00 0.000000e+00
1
Step 329000
Ar -6.596490e-01 0.000000e+00 0.000000e+00
1
Step 330000
Ar -9.442314e-01 0.000000e+00 0.000000e+00
1
Step 331000
Ar -8.754180e-01 0.000000e+00 0.000000e+00
1
Step 332000
Ar -6.760483e-01 0.000000e+00 0.000000e+00
1
Step 333000
Ar -4.894743e-01 0.000000e+00 0.000000e+00
1
Step 334000
Ar -3.566874e-01 0.000000e+00 0.000000e+00
1
Step 335000
Ar -2.977551e-01 0.000000e+00 0.000000e+00
1
Step 336000
Ar -1.947457e-01 0.000000e+00 0.000000e+00
1
Step 337000
Ar -2.422797e-01 0.000000e+00 0.000000e+00
1
Step 338000
Ar -3.166501e-01 0.000000e+00 0.000000e+00
1
Step 339000
Ar 1.978484e-01 0.000000e+00 0.000000e+00
1
Step 340000
Ar -9.671757e-02 0.000000e+00 0.000000e+00
1
Step 341000
Ar 1.284955e-01 0.000000e+00 0.000000e+00
1
Step 342000
Ar 2.330987e-02 0.000000e+00 0.000000e+00
1
Step 343000
Ar 8.922710e-03 0.000000e+00 0.000000e+00
1
Step 344000
Ar 2.039355e-02 0.000000e+00 0.000000e+00
1
Step 345000
Ar 1.472216e-01 0.000000e+00 0.000000e+00
1
Step 346000
Ar 1.210850e-01 0.000000e+00 0.000000e+00
1
Step 347000
Ar 8.484105e-02 0.000000e+00 0.000000e+00
1
Step 348000
Ar 3.628084e-01 0.000000e+00 0.000000e+00
1
Step 349000
Ar 3.807505e-01 0.000000e+00 0.000000e+00
1
Step 350000
Ar 3.533170e-01 0.000000e+00 0.000000e+00
1
Step 351000
Ar 3.499181e-01 0.000000e+00 0.000000e+00
1
Step 352000
Ar 3.510143e-01 0.000000e+00 0.000000e+00
1
Step 353000
Ar 3.546332e-01 0.000000e+00 0.000000e+00
1
Step 354000
Ar 3.794263e-01 0.000000e+00 0.000000e+00
1
Step 355000
Ar 3.591940e-01 0.000000e+00 0.000000e+00
1
Step 356000
Ar 4.766979e-01 0.000000e+00 0.000000e+00
1
Step 357000
Ar 5.445036e-01 0.000000e+00 0.000000e+00
1
Step 358000
Ar 6.492827e-01 0.000000e+00 0.000000e+00
1
Step 359000
Ar 6.545702e-01 0.000000e+00 0.000000e+00
1
Step 360000
Ar 5.458777e-01 0.000000e+00 0.000000e+00
1
Step 361000
Ar 5.473986e-01 0.000000e+00 0.000000e+00
1
Step 362000
Ar 5.049458e-01 0.000000e+00 0.000000e+00
1
Step 363000
Ar 4.857631e-01 0.000000e+00 0.000000e+00
1
Step 364000
Ar 6.170834e-01 0.000000e+00 0.000000e+00
1
Step 365000
Ar 6.255113e-01 0.000000e+00 0.000000e+00
1
Step 366000
Ar 6.233839e-01 0.000000e+00 0.000000e+00
1
Step 367000
Ar 6.181359e-01 0.000000e+00 0.000000e+00
1
Step 368000
Ar 5.496697e-01 0.000000e+00 0.000000e+00
1
Step 369000
Ar 6.160547e-01 0.000000e+00 0.000000e+00
1
Step 370000
Ar 6.802976e-01 0.000000e+00 0.000000e+00
1
Step 371000
Ar 5.215084e-01 0.000000e+00 0.000000e+00
1
Step 372000
Ar 5.145681e-01 0.000000e+00 0.000000e+00
1
Step 373000
Ar 4.603528e-01 0.000000e+00 0.000000e+00
1
Step 374000
Ar 4.496435e-01 0.000000e+00 0.000000e+00
1
Step 375000
Ar 2.257743e-01 0.000000e+00 0.000000e+00
1
Step 376000
Ar 2.054929e-01 0.000000e+00 0.000000e+00
1
Step 377000
Ar 2.042806e-01 0.000000e+00 0.000000e+00
1
Step 378000
Ar 1.584751e-01 0.000000e+00 0.000000e+00
1
Step 379000
Ar 1.490400e-01 0.000000e+00 0.000000e+00
1
Step 380000
Ar -2.926250e-01 0.000000e+00 0.000000e+00
1
Step 381000
Ar -3.402062e-01 0.000000e+00 0.000000e+00
1
Step 382000
Ar -3.000400e-01 0.000000e+00 0.000000e+00
1
Step 383000
Ar -4.912160e-01 0.000000e+00 0.000000e+00
1
Step 384000
Ar -5.049419e-01 0.000000e+00 0.000000e+00
1
Step 385000
Ar -2.828250e-01 0.000000e+00 0.000000e+00
1
Step 386000
Ar -4.743240e-01 0.000000e+00 0.000000e+00
1
Step 387000
Ar -4.626360e-01 0.000000e+00 0.000000e+00
1
Step 388000
Ar -4.859556e-01 0.000000e+00 0.000000e+00
1
Step 389000
Ar -4.830150e-01 0.000000e+00 0.000000e+00
1
Step 390000
Ar -4.797620e-01 0.000000e+00 0.000000e+00
1
Step 391000
Ar -4.023885e-01 0.000000e+00 0.000000e+00
1
Step 392000
Ar -6.586104e-01 0.000000e+00 0.000000e+00
1
Step 393000
Ar -7.324853e-01 0.000000e+00 0.000000e+00
1
Step 394000
Ar -6.333379e-01 0.000000e+00 0.000000e+00
1
Step 395000
Ar -6.354257e-01 0.000000e+00 0.000000e+00
1
Step 396000
Ar -6.233140e-01 0.000000e+00 0.000000e+00
1
Step 397000
Ar -8.494277e-01 0.000000e+00 0.000000e+00
1
Step 398000
Ar -9.230709e-01 0.000000e+00 0.000000e+00
1
Step 399000
Ar -9.386715e-01 0.000000e+00 0.000000e+00
1
Step 400000
Ar -9.419665e-01 0.000000e+00 0.000000e+00
1
Step 401000
Ar -5.744677e-01 0.000000e+00 0.000000e+00
1
Step 402000
Ar -5.746470e-01 0.000000e+00 0.000000e+00
1
Step 403000
Ar -5.706280e-01 0.000000e+00 0.000000e+00
1
Step 404000
Ar -6.574961e-01 0.000000e+00 0.000000e+00
1
Step 405000
Ar -9.190663e-01 0.000000e+00 0.000000e+00
1
Step 406000
Ar -9.472866e-01 0.000000e+00 0.000000e+00
1
Step 407000
Ar -8.921026e-01 0.000000e+00 0.000000e+00
1
Step 408000
Ar -8.953824e-01 0.000000e+00 0.000000e+00
1
Step 409000
Ar -8.560908e-01 0.000000e+00 0.000000e+00
1
Step 410000
Ar -8.285975e-01 0.000000e+00 0.000000e+00
1
Step 411000
Ar -9.148377e-01 0.000000e+00 0.000000e+00
1
Step 412000
Ar -5.115158e-01 0.000000e+00 0.000000e+00
1
Step 413000
Ar -4.802583e-01 0.000000e+00 0.000000e+00
1
Step 414000
Ar -4.976065e-01 0.000000e+00 0.000000e+00
1
Step 415000
Ar -6.850529e-01 0.000000e+00 0.000000e+00
1
Step 416000
Ar -6.763236e-01 0.000000e+00 0.000000e+00
1
Step 417000
Ar -7.036247e-01 0.000000e+00 0.000000e+00
1
Step 418000
Ar -5.980386e-01 0.000000e+00 0.000000e+00
1
Step 419000
Ar -6.548168e-01 0.000000e+00 0.000000e+00
1
Step 420000
Ar -5.254013e-01 0.000000e+00 0.000000e+00
1
Step 421000
Ar -5.081406e-01 0.000000e+00 0.000000e+00
1
Step 422000
Ar -3.348230e-01 0.000000e+00 0.000000e+00
1
Step 423000
Ar -2.762564e-01 0.000000e+00 0.000000e+00
1
Step 424000
Ar -1.549190e-01 0.000000e+00 0.000000e+00
1
Step 425000
Ar -1.997432e-01 0.000000e+00 0.000000e+00
1
Step 426000
Ar -1.832231e-01 0.000000e+00 0.000000e+00
1
Step 427000
Ar -1.816493e-01 0.000000e+00 0.000000e+00
1
Step 428000
Ar -1.782221e-01 0.000000e+00 0.000000e+00
1
Step 429000
Ar -2.781126e-01 0.000000e+00 0.000000e+00
1
Step 430000
Ar -2.894426e-01 0.000000e+00 0.000000e+00
1
Step 431000
Ar -2.744017e-01 0.000000e+00 0.000000e+00
1
Step 432000
Ar -1.695539e-01 0.000000e+00 0.000000e+00
1
Step 433000
Ar -1.073386e-01 0.000000e+00 0.000000e+00
1
Step 434000
Ar -5.624315e-02 0.000000e+00 0.000000e+00
1
Step 435000
Ar 5.569517e-02 0.000000e+00 0.000000e+00
1
Step 436000
Ar 8.823950e-02 0.000000e+00 0.000000e+00
1
Step 437000
Ar 8.850758e-02 0.000000e+00 0.000000e+00
1
Step 438000
Ar 9.858484e-02 0.000000e+00 0.000000e+00
1
Step 439000
Ar 1.489974e-01 0.000000e+00 0.000000e+00
1
Step 440000
Ar 4.231656e-01 0.000000e+00 0.000000e+00
1
Step 441000
Ar 6.440920e-01 0.000000e+00 0.000000e+00
1
Step 442000
Ar 6.754696e-01 0.000000e+00 0.000000e+00
1
Step 443000
Ar 6.732473e-01 0.000000e+00 0.000000e+00
1
Step 444000
Ar 5.880494e-01 0.000000e+00 0.000000e+00
1
Step 445000
Ar 5.811176e-01 0.000000e+00 0.000000e+00
1
Step 446000
Ar 6.344393e-01 0.000000e+00 0.000000e+00
1
Step 447000
Ar 5.588299e-01 0.000000e+00 0.000000e+00
1
Step 448000
Ar 6.018020e-01 0.000000e+00 0.000000e+00
1
Step 449000
Ar 5.754701e-01 0.000000e+00 0.000000e+00
1
Step 450000
Ar 5.970956e-01 0.000000e+00 0.000000e+00
1
Step 451000
Ar 6.776227e-01 0.000000e+00 0.000000e+00
1
Step 452000
Ar 7.127014e-01 0.000000e+00 0.000000e+00
1
Step 453000
Ar 6.673441e-01 0.000000e+00 0.000000e+00
1
Step 454000
Ar 6.453553e-01 0.000000e+00 0.000000e+00
1
Step 455000
Ar 6.436789e-01 0.000000e+00 0.000000e+00
1
Step 456000
Ar 6.161569e-01 0.000000e+00 0.000000e+00
1
Step 457000
Ar 6.221017e-01 0.000000e+00 0.000000e+00
1
Step 458000
Ar 7.865676e-01 0.000000e+00 0.000000e+00
1
Step 459000
Ar 7.772120e-01 0.000000e+00 0.000000e+00
1
Step 460000
Ar 9.023940e-01 0.000000e+00 0.000000e+00
1
Step 461000
Ar 8.782866e-01 0.000000e+00 0.000000e+00
1
Step 462000
Ar 7.479318e-01 0.000000e+00 0.000000e+00
1
Step 463000
Ar 8.999954e-01 0.000000e+00 0.000000e+00
1
Step 464000
Ar 1.015717e+00 0.000000e+00 0.000000e+00
1
Step 465000
Ar 1.007515e+00 0.000000e+00 0.000000e+00
1
Step 466000
Ar 1.014326e+00 0.000000e+00 0.000000e+00
1
Step 467000
Ar 9.240510e-01 0.000000e+00 0.000000e+00
1
Step 468000
Ar 9.211698e-01 0.000000e+00 0.000000e+00
1
Step 469000
Ar 9.492126e-01 0.000000e+00 0.000000e+00
1
Step 470000
Ar 1.010019e+00 0.000000e+00 0.000000e+00
1
Step 471000
Ar 9.270447e-01 0.000000e+00 0.000000e+00
1
Step 472000
Ar 9.511547e-01 0.000000e+00 0.000000e+00
1
Step 473000
Ar 9.299823e-01 0.000000e+00 0.000000e+00
1
Step 474000
Ar 9.421302e-01 0.000000e+00 0.000000e+00
1
Step 475000
Ar 9.548453e-01 0.000000e+00 0.000000e+00
1
Step 476000
Ar 1.969090e-01 0.000000e+00 0.000000e+00
1
Step 477000
Ar 1.522351e-01 0.000000e+00 0.000000e+00
1
Step 478000
Ar 1.509551e-01 0.000000e+00 0.000000e+00
1
Step 479000
Ar 1.448978e-01 0.000000e+00 0.000000e+00
1
Step 480000
Ar 1.155587e-01 0.000000e+00 0.000000e+00
1
Step 481000
Ar 1.169179e-01 0.000000e+00 0.000000e+00
1
Step 482000
Ar 3.620721e-01 0.000000e+00 0.000000e+00
1
Step 483000
Ar 2.912660e-01 0.000000e+00 0.000000e+00
1
Step 484000
Ar 2.467110e-01 0.000000e+00 0.000000e+00
1
Step 485000
Ar 2.480345e-01 0.000000e+00 0.000000e+00
1
Step 486000
Ar 2.856970e-01 0.000000e+00 0.000000e+00
1
Step 487000
Ar 7.081451e-01 0.000000e+00 0.000000e+00
1
Step 488000
Ar 7.839815e-01 0.000000e+00 0.000000e+00
1
Step 489000
Ar 7.841476e-01 0.000000e+00 0.000000e+00
1
Step 490000
Ar 8.235689e-01 0.000000e+00 0.000000e+00
1
Step 491000
Ar 4.247641e-01 0.000000e+00 0.000000e+00
1
Step 492000
Ar 4.575015e-01 0.000000e+00 0.000000e+00
1
Step 493000
Ar 4.727996e-01 0.000000e+00 0.000000e+00
1
Step 494000
Ar 4.708947e-01 0.000000e+00 0.000000e+00
1
Step 495000
Ar 5.292403e-01 0.000000e+00 0.000000e+00
1
Step 496000
Ar 5.135645e-01 0.000000e+00 0.000000e+00
1
Step 497000
Ar 5.451360e-01 0.000000e+00 0.000000e+00
1
Step 498000
Ar 5.407832e-01 0.000000e+00 0.000000e+00
1
Step 499000
Ar 4.090640e-01 0.000000e+00 0.000000e+00
1
Step 500000
Ar 3.525453e-01 0.000000e+00 0.000000e+00
1
Step 501000
Ar 2.354789e-01 0.000000e+00 0.000000e+00
1
Step 502000
Ar 2.795957e-01 0.000000e+00 0.000000e+00
1
Step 503000
Ar 2.936104e-01 0.000000e+00 0.000000e+00
1
Step 504000
Ar 3.095523e-01 0.000000e+00 0.000000e+00
1
Step 505000
Ar 2.490572e-01 0.000000e+00 0.000000e+00
1
Step 506000
Ar 2.668080e-01 0.000000e+00 0.000000e+00
1
Step 507000
Ar 2.763825e-01 0.000000e+00 0.000000e+00
1
Step 508000
Ar 2.485746e-01 0.000000e+00 0.000000e+00
1
Step 509000
Ar 1.159946e-01 0.000000e+00 0.000000e+00
1
Step 510000
Ar 1.154755e-01 0.000000e+00 0.000000e+00
1
Step 511000
Ar 1.192724e-01 0.000000e+00 0.000000e+00
1
Step 512000
Ar 1.789209e-01 0.000000e+00 0.000000e+00
1
Step 513000
Ar 1.855887e-01 0.000000e+00 0.000000e+00
1
Step 514000
Ar 1.352167e-01 0.000000e+00 0.000000e+00
1
Step 515000
Ar 5.907328e-02 0.000000e+00 0.000000e+00
1
Step 516000
Ar 4.352073e-01 0.000000e+00 0.000000e+00
1
Step 517000
Ar 4.700462e-01 0.000000e+00 0.000000e+00
1
Step 518000
Ar 3.833656e-01 0.000000e+00 0.000000e+00
1
Step 519000
Ar 4.201716e-01 0.000000e+00 0.000000e+00
1
Step 520000
Ar 4.019485e-01 0.000000e+00 0.000000e+00
1
Step 521000
Ar 4.178348e-01 0.000000e+00 0.000000e+00
1
Step 522000
Ar 5.280334e-01 0.000000e+00 0.000000e+00
1
Step 523000
Ar 5.148392e-01 0.000000e+00 0.000000e+00
1
Step 524000
Ar 5.148558e-01 0.000000e+00 0.000000e+00
1
Step 525000
Ar 5.175987e-01 0.000000e+00 0.000000e+00
1
Step 526000
Ar 5.477397e-01 0.000000e+00 0.000000e+00
1
Step 527000
Ar 5.479208e-01 0.000000e+00 0.000000e+00
1
Step 528000
Ar 5.451173e-01 0.000000e+00 0.000000e+00
1
Step 529000
Ar 4.385834e-01 0.000000e+00 0.000000e+00
1
Step 530000
Ar 5.047787e-01 0.000000e+00 0.000000e+00
1
Step 531000
Ar 5.040365e-01 0.000000e+00 0.000000e+00
1
Step 532000
Ar 4.576245e-01 0.000000e+00 0.000000e+00
1
Step 533000
Ar 3.637369e-01 0.000000e+00 0.000000e+00
1
Step 534000
Ar 3.823544e-01 0.000000e+00 0.000000e+00
1
Step 535000
Ar 4.195471e-01 0.000000e+00 0.000000e+00
1
Step 536000
Ar 3.778487e-01 0.000000e+00 0.000000e+00
1
Step 537000
Ar 5.118726e-01 0.000000e+00 0.000000e+00
1
Step 538000
Ar 2.747528e-01 0.000000e+00 0.000000e+00
1
Step 539000
Ar 2.722406e-01 0.000000e+00 0.000000e+00
1
Step 540000
Ar 2.633362e-01 0.000000e+00 0.000000e+00
1
Step 541000
Ar 8.519074e-01 0.000000e+00 0.000000e+00
1
Step 542000
Ar 7.664952e-01 0.000000e+00 0.000000e+00
1
Step 543000
Ar 6.675832e-01 0.000000e+00 0.000000e+00
1
Step 544000
Ar 7.864873e-01 0.000000e+00 0.000000e+00
1
Step 545000
Ar 7.087328e-01 0.000000e+00 0.000000e+00
1
Step 546000
Ar 7.095026e-01 0.000000e+00 0.000000e+00
1
Step 547000
Ar 6.217646e-01 0.000000e+00 0.000000e+00
1
Step 548000
Ar 6.924731e-01 0.000000e+00 0.000000e+00
1
Step 549000
Ar 6.418910e-01 0.000000e+00 0.000000e+00
1
Step 550000
Ar 6.292371e-01 0.000000e+00 0.000000e+00
1
Step 551000
Ar 7.369847e-01 0.000000e+00 0.000000e+00
1
Step 552000
Ar 8.830245e-01 0.000000e+00 0.000000e+00
1
Step 553000
Ar 8.442580e-01 0.000000e+00 0.000000e+00
1
Step 554000
Ar 8.291923e-01 0.000000e+00 0.000000e+00
1
Step 555000
Ar 7.817211e-01 0.000000e+00 0.000000e+00
1
Step 556000
Ar 8.034573e-01 0.000000e+00 0.000000e+00
1
Step 557000
Ar 9.041153e-01 0.000000e+00 0.000000e+00
1
Step 558000
Ar 9.079517e-01 0.000000e+00 0.000000e+00
1
Step 559000
Ar 8.800037e-01 0.000000e+00 0.000000e+00
1
Step 560000
Ar 5.914968e-01 0.000000e+00 0.000000e+00
1
Step 561000
Ar 7.452360e-01 0.000000e+00 0.000000e+00
1
Step 562000
Ar 7.387903e-01 0.000000e+00 0.000000e+00
1
Step 563000
Ar 7.378783e-01 0.000000e+00 0.000000e+00
1
Step 564000
Ar 7.339573e-01 0.000000e+00 0.000000e+00
1
Step 565000
Ar 7.066589e-01 0.000000e+00 0.000000e+00
1
Step 566000
Ar 7.095967e-01 0.000000e+00 0.000000e+00
1
Step 567000
Ar 7.192127e-01 0.000000e+00 0.000000e+00
1
Step 568000
Ar 1.030718e+00 0.000000e+00 0.000000e+00
1
Step 569000
Ar 1.059098e+00 0.000000e+00 0.000000e+00
1
Step 570000
Ar 1.034627e+00 0.000000e+00 0.000000e+00
1
Step 571000
Ar 1.007588e+00 0.000000e+00 0.000000e+00
1
Step 572000
Ar 1.016631e+00 0.000000e+00 0.000000e+00
1
Step 573000
Ar 1.043576e+00 0.000000e+00 0.000000e+00
1
Step 574000
Ar 1.014605e+00 0.000000e+00 0.000000e+00
1
Step 575000
Ar 1.003178e+00 0.000000e+00 0.000000e+00
1
Step 576000
Ar 1.114464e+00 0.000000e+00 0.000000e+00
1
Step 577000
Ar 1.149920e+00 0.000000e+00 0.000000e+00
1
Step 578000
Ar 1.124210e+00 0.000000e+00 0.000000e+00
1
Step 579000
Ar 1.144546e+00 0.000000e+00 0.000000e+00
1
Step 580000
Ar 1.146865e+00 0.000000e+00 0.000000e+00
1
Step 581000
Ar 1.035092e+00 0.000000e+00 0.000000e+00
1
Step 582000
Ar 9.565321e-01 0.000000e+00 0.000000e+00
1
Step 583000
Ar 9.732203e-01 0.000000e+00 0.000000e+00
1
Step 584000
Ar 7.782069e-01 0.000000e+00 0.000000e+00
1
Step 585000
Ar 7.984855e-01 0.000000e+00 0.000000e+00
1
Step 586000
Ar 8.436534e-01 0.000000e+00 0.000000e+00
1
Step 587000
Ar 8.395364e-01 0.000000e+00 0.000000e+00
1
Step 588000
Ar 8.471891e-01 0.000000e+00 0.000000e+00
1
Step 589000
Ar 8.267617e-01 0.000000e+00 0.000000e+00
1
Step 590000
Ar -3.646844e-02 0.000000e+00 0.000000e+00
1
Step 591000
Ar -4.021693e-02 0.000000e+00 0.000000e+00
1
Step 592000
Ar -7.176217e-02 0.000000e+00 0.000000e+00
1
Step 593000
Ar -2.836363e-01 0.000000e+00 0.000000e+00
1
Step 594000
Ar -2.741004e-01 0.000000e+00 0.000000e+00
1
Step 595000
Ar -2.087124e-01 0.000000e+00 0.000000e+00
1
Step 596000
Ar -2.247187e-01 0.000000e+00 0.000000e+00
1
Step 597000
Ar -1.869810e-01 0.000000e+00 0.000000e+00
1
Step 598000
Ar -2.278247e-02 0.000000e+00 0.000000e+00
1
Step 599000
Ar -4.085302e-03 0.000000e+00 0.000000e+00
1
Step 600000
Ar -3.467587e-03 0.000000e+00 0.000000e+00
1
Step 601000
Ar 5.776093e-02 0.000000e+00 0.000000e+00
1
Step 602000
Ar 1.380641e-01 0.000000e+00 0.000000e+00
1
Step 603000
Ar 7.817796e-02 0.000000e+00 0.000000e+00
1
Step 604000
Ar 7.524512e-02 0.000000e+00 0.000000e+00
1
Step 605000
Ar 1.034785e-01 0.000000e+00 0.000000e+00
1
Step 606000
Ar 1.518451e-01 0.000000e+00 0.000000e+00
1
Step 607000
Ar -7.902340e-04 0.000000e+00 0.000000e+00
1
Step 608000
Ar -1.166376e-02 0.000000e+00 0.000000e+00
1
Step 609000
Ar -7.489486e-01 0.000000e+00 0.000000e+00
1
Step 610000
Ar -7.597884e-01 0.000000e+00 0.000000e+00
1
Step 611000
Ar -8.316528e-01 0.000000e+00 0.000000e+00
1
Step 612000
Ar -8.265291e-01 0.000000e+00 0.000000e+00
1
Step 613000
Ar -8.950961e-01 0.000000e+00 0.000000e+00
1
Step 614000
Ar -8.980289e-01 0.000000e+00 0.000000e+00
1
Step 615000
Ar -8.937966e-01 0.000000e+00 0.000000e+00
1
Step 616000
Ar -3.713779e-01 0.000000e+00 0.000000e+00
1
Step 617000
Ar -3.700117e-01 0.000000e+00 0.000000e+00
1
Step 618000
Ar -4.079532e-01 0.000000e+00 0.000000e+00
1
Step 619000
Ar -5.248424e-01 0.000000e+00 0.000000e+00
1
Step 620000
Ar -4.664443e-01 0.000000e+00 0.000000e+00
1
Step 621000
Ar -7.351649e-01 0.000000e+00 0.000000e+00
1
Step 622000
Ar -7.475551e-01 0.000000e+00 0.000000e+00
1
Step 623000
Ar -7.787371e-01 0.000000e+00 0.000000e+00
1
Step 624000
Ar -8.528307e-01 0.000000e+00 0.000000e+00
1
Step 625000
Ar -8.669362e-01 0.000000e+00 0.000000e+00
1
Step 626000
Ar -8.469441e-01 0.000000e+00 0.000000e+00
1
Step 627000
Ar -8.430195e-01 0.000000e+00 0.000000e+00
1
Step 628000
Ar -7.916931e-01 0.000000e+00 0.000000e+00
1
Step 629000
Ar -7.405932e-01 0.000000e+00 0.000000e+00
1
Step 630000
Ar -7.443482e-01 0.000000e+00 0.000000e+00
1
Step 631000
Ar -3.299121e-01 0.000000e+00 0.000000e+00
1
Step 632000
Ar -3.302506e-01 0.000000e+00 0.000000e+00
1
Step 633000
Ar -3.266661e-01 0.000000e+00 0.000000e+00
1
Step 634000
Ar -3.704335e-01 0.000000e+00 0.000000e+00
1
Step 635000
Ar -3.710876e-01 0.000000e+00 0.000000e+00
1
Step 636000
Ar -3.702485e-01 0.000000e+00 0.000000e+00
1
Step 637000
Ar -3.773363e-01 0.000000e+00 0.000000e+00
1
Step 638000
Ar -4.957033e-01 0.000000e+00 0.000000e+00
1
Step 639000
Ar -4.867417e-01 0.000000e+00 0.000000e+00
1
Step 640000
Ar -5.244351e-01 0.000000e+00 0.000000e+00
1
Step 641000
Ar -6.608123e-01 0.000000e+00 0.000000e+00
1
Step 642000
Ar -6.265325e-01 0.000000e+00 0.000000e+00
1
Step 643000
Ar -6.295420e-01 0.000000e+00 0.000000e+00
1
Step 644000
Ar -5.965553e-01 0.000000e+00 0.000000e+00
1
Step 645000
Ar -6.731212e-01 0.000000e+00 0.000000e+00
1
Step 646000
Ar -6.630213e-01 0.000000e+00 0.000000e+00
1
Step 647000
Ar -6.525153e-01 0.000000e+00 0.000000e+00
1
Step 648000
Ar -6.951166e-01 0.000000e+00 0.000000e+00
1
Step 649000
Ar -6.544476e-01 0.000000e+00 0.000000e+00
1
Step 650000
Ar -6.292201e-01 0.000000e+00 0.000000e+00
1
Step 651000
Ar -6.088888e-01 0.000000e+00 0.000000e+00
1
Step 652000