1
Step 120000
Ar 1.002240e+00 0.000000e+00 0.000000e+00
1
Step 121000
Ar 9.903198e-01 0.000000e+00 0.000000e+00
1
Step 122000
Ar 9.951926e-01 0.000000e+00 0.000000e+00
1
Step 123000
Ar 1.007763e+00 0.000000e+00 0.000000e+00
1
Step 124000
Ar 1.012035e+00 0.000000e+00 0.000000e+00
1
Step 125000
Ar 1.001941e+00 0.000000e+00 0.000000e+00
1
Step 126000
Ar 9.839212e-01 0.000000e+00 0.000000e+00
1
Step 127000
Ar 9.901890e-01 0.000000e+00 0.000000e+00
1
Step 128000
Ar 9.804894e-01 0.000000e+00 0.000000e+00
1
Step 129000
Ar 9.874409e-01 0.000000e+00 0.000000e+00
1
Step 130000
Ar 9.930567e-01 0.000000e+00 0.000000e+00
1
Step 131000
Ar 9.755804e-01 0.000000e+00 0.000000e+00
1
Step 132000
Ar 9.745018e-01 0.000000e+00 0.000000e+00
1
Step 133000
Ar 9.740195e-01 0.000000e+00 0.000000e+00
1
Step 134000
Ar 9.742503e-01 0.000000e+00 0.000000e+00
1
Step 135000
Ar 9.807515e-01 0.000000e+00 0.000000e+00
1
Step 136000
Ar 9.513379e-01 0.000000e+00 0.000000e+00
1
Step 137000
Ar 9.679317e-01 0.000000e+00 0.000000e+00
1
Step 138000
Ar 9.571078e-01 0.000000e+00 0.000000e+00
1
Step 139000
Ar 9.593050e-01 0.000000e+00 0.000000e+00
1
Step 140000
Ar 9.681855e-01 0.000000e+00 0.000000e+00
1
Step 141000
Ar 9.550953e-01 0.000000e+00 0.000000e+00
1
Step 142000
Ar 9.586068e-01 0.000000e+00 0.000000e+00
1
Step 143000
Ar 9.564984e-01 0.000000e+00 0.000000e+00
1
Step 144000
Ar 9.572242e-01 0.000000e+00 0.000000e+00
1
Step 145000
Ar 9.509177e-01 0.000000e+00 0.000000e+00
1
Step 146000
Ar 1.019183e+00 0.000000e+00 0.000000e+00
1
Step 147000
Ar 1.018433e+00 0.000000e+00 0.000000e+00
1
Step 148000
Ar 1.017569e+00 0.000000e+00 0.000000e+00
1
Step 149000
Ar 1.027726e+00 0.000000e+00 0.000000e+00
1
Step 150000
Ar 1.026227e+00 0.000000e+00 0.000000e+00
1
Step 151000
Ar 1.017313e+00 0.000000e+00 0.000000e+00
1
Step 152000
Ar 1.016940e+00 0.000000e+00 0.000000e+00
1
Step 153000
Ar 1.014238e+00 0.000000e+00 0.000000e+00
1
Step 154000
Ar 1.016397e+00 0.000000e+00 0.000000e+00
1
Step 155000
Ar 1.019311e+00 0.000000e+00 0.000000e+00
1
Step 156000
Ar 9.414195e-01 0.000000e+00 0.000000e+00
1
Step 157000
Ar 9.384403e-01 0.000000e+00 0.000000e+00
1
Step 158000
Ar 9.385864e-01 0.000000e+00 0.000000e+00
1
Step 159000
Ar 9.366753e-01 0.000000e+00 0.000000e+00
1
Step 160000
Ar 9.387533e-01 0.000000e+00 0.000000e+00
1
Step 161000
Ar 1.041731e+00 0.000000e+00 0.000000e+00
1
Step 162000
Ar 1.037185e+00 0.000000e+00 0.000000e+00
1
Step 163000
Ar 1.044545e+00 0.000000e+00 0.000000e+00
1
Step 164000
Ar 1.042823e+00 0.000000e+00 0.000000e+00
1
Step 165000
Ar 1.041174e+00 0.000000e+00 0.000000e+00
1
Step 166000
Ar 1.057154e+00 0.000000e+00 0.000000e+00
1
Step 167000
Ar 1.052923e+00 0.000000e+00 0.000000e+00
1
Step 168000
Ar 1.053851e+00 0.000000e+00 0.000000e+00
1
Step 169000
Ar 1.051628e+00 0.000000e+00 0.000000e+00
1
Step 170000
Ar 1.053485e+00 0.000000e+00 0.000000e+00
1
Step 171000
Ar 8.952774e-01 0.000000e+00 0.000000e+00
1
Step 172000
Ar 9.616178e-01 0.000000e+00 0.000000e+00
1
Step 173000
Ar 1.038429e+00 0.000000e+00 0.000000e+00
1
Step 174000
Ar 1.007483e+00 0.000000e+00 0.000000e+00
1
Step 175000
Ar 1.013259e+00 0.000000e+00 0.000000e+00
1
Step 176000
Ar 9.836645e-01 0.000000e+00 0.000000e+00
1
Step 177000
Ar 9.859596e-01 0.000000e+00 0.000000e+00
1
Step 178000
Ar 1.025293e+00 0.000000e+00 0.000000e+00
1
Step 179000
Ar 9.747379e-01 0.000000e+00 0.000000e+00
1
Step 180000
Ar 9.747136e-01 0.000000e+00 0.000000e+00
1
Step 181000
Ar 9.164488e-01 0.000000e+00 0.000000e+00
1
Step 182000
Ar 9.253586e-01 0.000000e+00 0.000000e+00
1
Step 183000
Ar 9.278639e-01 0.000000e+00 0.000000e+00
1
Step 184000
Ar 9.250190e-01 0.000000e+00 0.000000e+00
1
Step 185000
Ar 9.294172e-01 0.000000e+00 0.000000e+00
1
Step 186000
Ar 1.064666e+00 0.000000e+00 0.000000e+00
1
Step 187000
Ar 1.064969e+00 0.000000e+00 0.000000e+00
1
Step 188000
Ar 1.065667e+00 0.000000e+00 0.000000e+00
1
Step 189000
Ar 1.067280e+00 0.000000e+00 0.000000e+00
1
Step 190000
Ar 1.067340e+00 0.000000e+00 0.000000e+00
1
Step 191000
Ar 1.005283e+00 0.000000e+00 0.000000e+00
1
Step 192000
Ar 1.002537e+00 0.000000e+00 0.000000e+00
1
Step 193000
Ar 1.081188e+00 0.000000e+00 0.000000e+00
1
Step 194000
Ar 1.080874e+00 0.000000e+00 0.000000e+00
1
Step 195000
Ar 1.086573e+00 0.000000e+00 0.000000e+00
1
Step 196000
Ar 9.899407e-01 0.000000e+00 0.000000e+00
1
Step 197000
Ar 9.680793e-01 0.000000e+00 0.000000e+00
1
Step 198000
Ar 1.095245e+00 0.000000e+00 0.000000e+00
1
Step 199000
Ar 1.091991e+00 0.000000e+00 0.000000e+00
1
Step 200000
Ar 1.024834e+00 0.000000e+00 0.000000e+00
1
Step 201000
Ar 1.094445e+00 0.000000e+00 0.000000e+00
1
Step 202000
Ar 9.166063e-01 0.000000e+00 0.000000e+00
1
Step 203000
Ar 9.216275e-01 0.000000e+00 0.000000e+00
1
Step 204000
Ar 9.190878e-01 0.000000e+00 0.000000e+00
1
Step 205000
Ar 9.170482e-01 0.000000e+00 0.000000e+00
1
Step 206000
Ar 1.048513e+00 0.000000e+00 0.000000e+00
1
Step 207000
Ar 8.794611e-01 0.000000e+00 0.000000e+00
1
Step 208000
Ar 8.536737e-01 0.000000e+00 0.000000e+00
1
Step 209000
Ar 1.097497e+00 0.000000e+00 0.000000e+00
1
Step 210000
Ar 9.924670e-01 0.000000e+00 0.000000e+00
1
Step 211000
Ar 8.876857e-01 0.000000e+00 0.000000e+00
1
Step 212000
Ar 9.575754e-01 0.000000e+00 0.000000e+00
1
Step 213000
Ar 8.719078e-01 0.000000e+00 0.000000e+00
1
Step 214000
Ar 9.618447e-01 0.000000e+00 0.000000e+00
1
Step 215000
Ar 9.046569e-01 0.000000e+00 0.000000e+00
1
Step 216000
Ar 8.948222e-01 0.000000e+00 0.000000e+00
1
Step 217000
Ar 8.949273e-01 0.000000e+00 0.000000e+00
1
Step 218000
Ar 8.943551e-01 0.000000e+00 0.000000e+00
1
Step 219000
Ar 8.971890e-01 0.000000e+00 0.000000e+00
1
Step 220000
Ar 8.952831e-01 0.000000e+00 0.000000e+00
1
Step 221000
Ar 8.822966e-01 0.000000e+00 0.000000e+00
1
Step 222000
Ar 8.830677e-01 0.000000e+00 0.000000e+00
1
Step 223000
Ar 8.885481e-01 0.000000e+00 0.000000e+00
1
Step 224000
Ar 8.846900e-01 0.000000e+00 0.000000e+00
1
Step 225000
Ar 8.844293e-01 0.000000e+00 0.000000e+00
1
Step 226000
Ar 1.082147e+00 0.000000e+00 0.000000e+00
1
Step 227000
Ar 8.799713e-01 0.000000e+00 0.000000e+00
1
Step 228000
Ar 1.028074e+00 0.000000e+00 0.000000e+00
1
Step 229000
Ar 9.679486e-01 0.000000e+00 0.000000e+00
1
Step 230000
Ar 8.747762e-01 0.000000e+00 0.000000e+00
1
Step 231000
Ar 8.772342e-01 0.000000e+00 0.000000e+00
1
Step 232000
Ar 9.055522e-01 0.000000e+00 0.000000e+00
1
Step 233000
Ar 8.016717e-01 0.000000e+00 0.000000e+00
1
Step 234000
Ar 9.085917e-01 0.000000e+00 0.000000e+00
1
Step 235000
Ar 1.024528e+00 0.000000e+00 0.000000e+00
1
Step 236000
Ar 1.133977e+00 0.000000e+00 0.000000e+00
1
Step 237000
Ar 1.039039e+00 0.000000e+00 0.000000e+00
1
Step 238000
Ar 9.073280e-01 0.000000e+00 0.000000e+00
1
Step 239000
Ar 1.008325e+00 0.000000e+00 0.000000e+00
1
Step 240000
Ar 9.596049e-01 0.000000e+00 0.000000e+00
1
Step 241000
Ar 9.657807e-01 0.000000e+00 0.000000e+00
1
Step 242000
Ar 9.531388e-01 0.000000e+00 0.000000e+00
1
Step 243000
Ar 8.628873e-01 0.000000e+00 0.000000e+00
1
Step 244000
Ar 8.603462e-01 0.000000e+00 0.000000e+00
1
Step 245000
Ar 8.645267e-01 0.000000e+00 0.000000e+00
1
Step 246000
Ar 9.615557e-01 0.000000e+00 0.000000e+00
1
Step 247000
Ar 9.583370e-01 0.000000e+00 0.000000e+00
1
Step 248000
Ar 9.470090e-01 0.000000e+00 0.000000e+00
1
Step 249000
Ar 8.120696e-01 0.000000e+00 0.000000e+00
1
Step 250000
Ar 1.149192e+00 0.000000e+00 0.000000e+00
1
Step 251000
Ar 1.016006e+00 0.000000e+00 0.000000e+00
1
Step 252000
Ar 8.901054e-01 0.000000e+00 0.000000e+00
1
Step 253000
Ar 9.843430e-01 0.000000e+00 0.000000e+00
1
Step 254000
Ar 9.231665e-01 0.000000e+00 0.000000e+00
1
Step 255000
Ar 9.418442e-01 0.000000e+00 0.000000e+00
1
Step 256000
Ar 8.532743e-01 0.000000e+00 0.000000e+00
1
Step 257000
Ar 9.870907e-01 0.000000e+00 0.000000e+00
1
Step 258000
Ar 9.987912e-01 0.000000e+00 0.000000e+00
1
Step 259000
Ar 1.008663e+00 0.000000e+00 0.000000e+00
1
Step 260000
Ar 1.004147e+00 0.000000e+00 0.000000e+00
1
Step 261000
Ar 9.286046e-01 0.000000e+00 0.000000e+00
1
Step 262000
Ar 9.519140e-01 0.000000e+00 0.000000e+00
1
Step 263000
Ar 8.253964e-01 0.000000e+00 0.000000e+00
1
Step 264000
Ar 1.070814e+00 0.000000e+00 0.000000e+00
1
Step 265000
Ar 9.141051e-01 0.000000e+00 0.000000e+00
1
Step 266000
Ar 9.823260e-01 0.000000e+00 0.000000e+00
1
Step 267000
Ar 8.876534e-01 0.000000e+00 0.000000e+00
1
Step 268000
Ar 9.883831e-01 0.000000e+00 0.000000e+00
1
Step 269000
Ar 9.291341e-01 0.000000e+00 0.000000e+00
1
Step 270000
Ar 9.289636e-01 0.000000e+00 0.000000e+00
1
Step 271000
Ar 8.930280e-01 0.000000e+00 0.000000e+00
1
Step 272000
Ar 8.303027e-01 0.000000e+00 0.000000e+00
1
Step 273000
Ar 8.792899e-01 0.000000e+00 0.000000e+00
1
Step 274000
Ar 9.684799e-01 0.000000e+00 0.000000e+00
1
Step 275000
Ar 8.698809e-01 0.000000e+00 0.000000e+00
1
Step 276000
Ar 1.068137e+00 0.000000e+00 0.000000e+00
1
Step 277000
Ar 9.542638e-01 0.000000e+00 0.000000e+00
1
Step 278000
Ar 8.938634e-01 0.000000e+00 0.000000e+00
1
Step 279000
Ar 9.133522e-01 0.000000e+00 0.000000e+00
1
Step 280000
Ar 1.161293e+00 0.000000e+00 0.000000e+00
1
Step 281000
Ar 9.610892e-01 0.000000e+00 0.000000e+00
1
Step 282000
Ar 9.619175e-01 0.000000e+00 0.000000e+00
1
Step 283000
Ar 8.532172e-01 0.000000e+00 0.000000e+00
1
Step 284000
Ar 8.577562e-01 0.000000e+00 0.000000e+00
1
Step 285000
Ar 8.568898e-01 0.000000e+00 0.000000e+00
1
Step 286000
Ar 9.436707e-01 0.000000e+00 0.000000e+00
1
Step 287000
Ar 8.469619e-01 0.000000e+00 0.000000e+00
1
Step 288000
Ar 8.467995e-01 0.000000e+00 0.000000e+00
1
Step 289000
Ar 8.506072e-01 0.000000e+00 0.000000e+00
1
Step 290000
Ar 8.459052e-01 0.000000e+00 0.000000e+00
1
Step 291000
Ar 9.586204e-01 0.000000e+00 0.000000e+00
1
Step 292000
Ar 9.581716e-01 0.000000e+00 0.000000e+00
1
Step 293000
Ar 1.047815e+00 0.000000e+00 0.000000e+00
1
Step 294000
Ar 1.089458e+00 0.000000e+00 0.000000e+00
1
Step 295000
Ar 1.098630e+00 0.000000e+00 0.000000e+00
1
Step 296000
Ar 8.365619e-01 0.000000e+00 0.000000e+00
1
Step 297000
Ar 8.162198e-01 0.000000e+00 0.000000e+00
1
Step 298000
Ar 1.143318e+00 0.000000e+00 0.000000e+00
1
Step 299000
Ar 8.522467e-01 0.000000e+00 0.000000e+00
1
Step 300000
Ar 8.725932e-01 0.000000e+00 0.000000e+00
1
Step 301000
Ar 8.496948e-01 0.000000e+00 0.000000e+00
1
Step 302000
Ar 8.540070e-01 0.000000e+00 0.000000e+00
1
Step 303000
Ar 8.544242e-01 0.000000e+00 0.000000e+00
1
Step 304000
Ar 8.571376e-01 0.000000e+00 0.000000e+00
1
Step 305000
Ar 8.402101e-01 0.000000e+00 0.000000e+00
1
Step 306000
Ar 9.830579e-01 0.000000e+00 0.000000e+00
1
Step 307000
Ar 1.028417e+00 0.000000e+00 0.000000e+00
1
Step 308000
Ar 9.668251e-01 0.000000e+00 0.000000e+00
1
Step 309000
Ar 1.246176e+00 0.000000e+00 0.000000e+00
1
Step 310000
Ar 1.112861e+00 0.000000e+00 0.000000e+00
1
Step 311000
Ar 9.478913e-01 0.000000e+00 0.000000e+00
1
Step 312000
Ar 1.011832e+00 0.000000e+00 0.000000e+00
1
Step 313000
Ar 1.059267e+00 0.000000e+00 0.000000e+00
1
Step 314000
Ar 9.080590e-01 0.000000e+00 0.000000e+00
1
Step 315000
Ar 9.672806e-01 0.000000e+00 0.000000e+00
1
Step 316000
Ar 9.959058e-01 0.000000e+00 0.000000e+00
1
Step 317000
Ar 9.494189e-01 0.000000e+00 0.000000e+00
1
Step 318000
Ar 9.556400e-01 0.000000e+00 0.000000e+00
1
Step 319000
Ar 9.515457e-01 0.000000e+00 0.000000e+00
1
Step 320000
Ar 9.573951e-01 0.000000e+00 0.000000e+00
1
Step 321000
Ar 9.968135e-01 0.000000e+00 0.000000e+00
1
Step 322000
Ar 8.565410e-01 0.000000e+00 0.000000e+00
1
Step 323000
Ar 8.523228e-01 0.000000e+00 0.000000e+00
1
Step 324000
Ar 8.579299e-01 0.000000e+00 0.000000e+00
1
Step 325000
Ar 8.582815e-01 0.000000e+00 0.000000e+00
1
Step 326000
Ar 1.066835e+00 0.000000e+00 0.000000e+00
1
Step 327000
Ar 8.184062e-01 0.000000e+00 0.000000e+00
1
Step 328000
Ar 1.023050e+00 0.000000e+00 0.000000e+00
1
Step 329000
Ar 7.144184e-01 0.000000e+00 0.000000e+00
1
Step 330000
Ar 8.227650e-01 0.000000e+00 0.000000e+00
1
Step 331000
Ar 9.521379e-01 0.000000e+00 0.000000e+00
1
Step 332000
Ar 1.017593e+00 0.000000e+00 0.000000e+00
1
Step 333000
Ar 1.071980e+00 0.000000e+00 0.000000e+00
1
Step 334000
Ar 9.093868e-01 0.000000e+00 0.000000e+00
1
Step 335000
Ar 8.987482e-01 0.000000e+00 0.000000e+00
1
Step 336000
Ar 1.032636e+00 0.000000e+00 0.000000e+00
1
Step 337000
Ar 9.304272e-01 0.000000e+00 0.000000e+00
1
Step 338000
Ar 9.504291e-01 0.000000e+00 0.000000e+00
1
Step 339000
Ar 1.127161e+00 0.000000e+00 0.000000e+00
1
Step 340000
Ar 8.145047e-01 0.000000e+00 0.000000e+00
1
Step 341000
Ar 1.091687e+00 0.000000e+00 0.000000e+00
1
Step 342000
Ar 9.730527e-01 0.000000e+00 0.000000e+00
1
Step 343000
Ar 9.576515e-01 0.000000e+00 0.000000e+00
1
Step 344000
Ar 8.720393e-01 0.000000e+00 0.000000e+00
1
Step 345000
Ar 7.584451e-01 0.000000e+00 0.000000e+00
1
Step 346000
Ar 7.373751e-01 0.000000e+00 0.000000e+00
1
Step 347000
Ar 1.012906e+00 0.000000e+00 0.000000e+00
1
Step 348000
Ar 1.206875e+00 0.000000e+00 0.000000e+00
1
Step 349000
Ar 1.227221e+00 0.000000e+00 0.000000e+00
1
Step 350000
Ar 8.086933e-01 0.000000e+00 0.000000e+00
1
Step 351000
Ar 8.009994e-01 0.000000e+00 0.000000e+00
1
Step 352000
Ar 8.017582e-01 0.000000e+00 0.000000e+00
1
Step 353000
Ar 8.008248e-01 0.000000e+00 0.000000e+00
1
Step 354000
Ar 8.014280e-01 0.000000e+00 0.000000e+00
1
Step 355000
Ar 8.017422e-01 0.000000e+00 0.000000e+00
1
Step 356000
Ar 7.527215e-01 0.000000e+00 0.000000e+00
1
Step 357000
Ar 9.382907e-01 0.000000e+00 0.000000e+00
1
Step 358000
Ar 7.453473e-01 0.000000e+00 0.000000e+00
1
Step 359000
Ar 1.189048e+00 0.000000e+00 0.000000e+00
1
Step 360000
Ar 8.752355e-01 0.000000e+00 0.000000e+00
1
Step 361000
Ar 9.354598e-01 0.000000e+00 0.000000e+00
1
Step 362000
Ar 5.881096e-01 0.000000e+00 0.000000e+00
1
Step 363000
Ar 8.631646e-01 0.000000e+00 0.000000e+00
1
Step 364000
Ar 9.967612e-01 0.000000e+00 0.000000e+00
1
Step 365000
Ar 8.394038e-01 0.000000e+00 0.000000e+00
1
Step 366000
Ar 9.349209e-01 0.000000e+00 0.000000e+00
1
Step 367000
Ar 9.324353e-01 0.000000e+00 0.000000e+00
1
Step 368000
Ar 1.059181e+00 0.000000e+00 0.000000e+00
1
Step 369000
Ar 1.154495e+00 0.000000e+00 0.000000e+00
1
Step 370000
Ar 1.143455e+00 0.000000e+00 0.000000e+00
1
Step 371000
Ar 7.441468e-01 0.000000e+00 0.000000e+00
1
Step 372000
Ar 1.118323e+00 0.000000e+00 0.000000e+00
1
Step 373000
Ar 1.112374e+00 0.000000e+00 0.000000e+00
1
Step 374000
Ar 8.315409e-01 0.000000e+00 0.000000e+00
1
Step 375000
Ar 9.410710e-01 0.000000e+00 0.000000e+00
1
Step 376000
Ar 6.677387e-01 0.000000e+00 0.000000e+00
1
Step 377000
Ar 9.602007e-01 0.000000e+00 0.000000e+00
1
Step 378000
Ar 1.146347e+00 0.000000e+00 0.000000e+00
1
Step 379000
Ar 6.980637e-01 0.000000e+00 0.000000e+00
1
Step 380000
Ar 9.665762e-01 0.000000e+00 0.000000e+00
1
Step 381000
Ar 9.500429e-01 0.000000e+00 0.000000e+00
1
Step 382000
Ar 1.128556e+00 0.000000e+00 0.000000e+00
1
Step 383000
Ar 1.062674e+00 0.000000e+00 0.000000e+00
1
Step 384000
Ar 1.021658e+00 0.000000e+00 0.000000e+00
1
Step 385000
Ar 1.109561e+00 0.000000e+00 0.000000e+00
1
Step 386000
Ar -9.973759e-01 0.000000e+00 0.000000e+00
1
Step 387000
Ar -9.950628e-01 0.000000e+00 0.000000e+00
1
Step 388000
Ar -1.004378e+00 0.000000e+00 0.000000e+00
1
Step 389000
Ar -1.012914e+00 0.000000e+00 0.000000e+00
1
Step 390000
Ar -1.011039e+00 0.000000e+00 0.000000e+00
1
Step 391000
Ar -9.954249e-01 0.000000e+00 0.000000e+00
1
Step 392000
Ar -9.993800e-01 0.000000e+00 0.000000e+00
1
Step 393000
Ar -9.967366e-01 0.000000e+00 0.000000e+00
1
Step 394000
Ar -9.928047e-01 0.000000e+00 0.000000e+00
1
Step 395000
Ar -9.966219e-01 0.000000e+00 0.000000e+00
1
Step 396000
Ar -9.796154e-01 0.000000e+00 0.000000e+00
1
Step 397000
Ar -9.747696e-01 0.000000e+00 0.000000e+00
1
Step 398000
Ar -9.831460e-01 0.000000e+00 0.000000e+00
1
Step 399000
Ar -9.744044e-01 0.000000e+00 0.000000e+00
1
Step 400000
Ar -9.732021e-01 0.000000e+00 0.000000e+00
1
Step 401000
Ar -1.040686e+00 0.000000e+00 0.000000e+00
1
Step 402000
Ar -1.024793e+00 0.000000e+00 0.000000e+00
1
Step 403000
Ar -1.020535e+00 0.000000e+00 0.000000e+00
1
Step 404000
Ar -1.025811e+00 0.000000e+00 0.000000e+00
1
Step 405000
Ar -1.027094e+00 0.000000e+00 0.000000e+00
1
Step 406000
Ar -9.858295e-01 0.000000e+00 0.000000e+00
1
Step 407000
Ar -9.825378e-01 0.000000e+00 0.000000e+00
1
Step 408000
Ar -9.874999e-01 0.000000e+00 0.000000e+00
1
Step 409000
Ar -9.900370e-01 0.000000e+00 0.000000e+00
1
Step 410000
Ar -9.853324e-01 0.000000e+00 0.000000e+00
1
Step 411000
Ar -1.043363e+00 0.000000e+00 0.000000e+00
1
Step 412000
Ar -1.044307e+00 0.000000e+00 0.000000e+00
1
Step 413000
Ar -1.038075e+00 0.000000e+00 0.000000e+00
1
Step 414000
Ar -1.042237e+00 0.000000e+00 0.000000e+00
1
Step 415000
Ar -1.038275e+00 0.000000e+00 0.000000e+00
1
Step 416000
Ar -1.051009e+00 0.000000e+00 0.000000e+00
1
Step 417000
Ar -1.047312e+00 0.000000e+00 0.000000e+00
1
Step 418000
Ar -1.049380e+00 0.000000e+00 0.000000e+00
1
Step 419000
Ar -1.048976e+00 0.000000e+00 0.000000e+00
1
Step 420000
Ar -1.052648e+00 0.000000e+00 0.000000e+00
1
Step 421000
Ar -1.063944e+00 0.000000e+00 0.000000e+00
1
Step 422000
Ar -1.072775e+00 0.000000e+00 0.000000e+00
1
Step 423000
Ar -1.064025e+00 0.000000e+00 0.000000e+00
1
Step 424000
Ar -1.062384e+00 0.000000e+00 0.000000e+00
1
Step 425000
Ar -1.063863e+00 0.000000e+00 0.000000e+00
1
Step 426000
Ar -9.940250e-01 0.000000e+00 0.000000e+00
1
Step 427000
Ar -9.598521e-01 0.000000e+00 0.000000e+00
1
Step 428000
Ar -9.665631e-01 0.000000e+00 0.000000e+00
1
Step 429000
Ar -9.544132e-01 0.000000e+00 0.000000e+00
1
Step 430000
Ar -9.526725e-01 0.000000e+00 0.000000e+00
1
Step 431000
Ar -9.593738e-01 0.000000e+00 0.000000e+00
1
Step 432000
Ar -9.634441e-01 0.000000e+00 0.000000e+00
1
Step 433000
Ar -9.661915e-01 0.000000e+00 0.000000e+00
1
Step 434000
Ar -9.985019e-01 0.000000e+00 0.000000e+00
1
Step 435000
Ar -9.383624e-01 0.000000e+00 0.000000e+00
1
Step 436000
Ar -1.071537e+00 0.000000e+00 0.000000e+00
1
Step 437000
Ar -1.075481e+00 0.000000e+00 0.000000e+00
1
Step 438000
Ar -9.588709e-01 0.000000e+00 0.000000e+00
1
Step 439000
Ar -9.625786e-01 0.000000e+00 0.000000e+00
1
Step 440000
Ar -9.649182e-01 0.000000e+00 0.000000e+00
1
Step 441000
Ar -1.019256e+00 0.000000e+00 0.000000e+00
1
Step 442000
Ar -9.571873e-01 0.000000e+00 0.000000e+00
1
Step 443000
Ar -9.576591e-01 0.000000e+00 0.000000e+00
1
Step 444000
Ar -9.565631e-01 0.000000e+00 0.000000e+00
1
Step 445000
Ar -9.592250e-01 0.000000e+00 0.000000e+00
1
Step 446000
Ar -9.280970e-01 0.000000e+00 0.000000e+00
1
Step 447000
Ar -9.288117e-01 0.000000e+00 0.000000e+00
1
Step 448000
Ar -1.008269e+00 0.000000e+00 0.000000e+00
1
Step 449000
Ar -1.002483e+00 0.000000e+00 0.000000e+00
1
Step 450000
Ar -9.245157e-01 0.000000e+00 0.000000e+00
1
Step 451000
Ar -9.080549e-01 0.000000e+00 0.000000e+00
1
Step 452000
Ar -1.019150e+00 0.000000e+00 0.000000e+00
1
Step 453000
Ar -1.020014e+00 0.000000e+00 0.000000e+00
1
Step 454000
Ar -1.125989e+00 0.000000e+00 0.000000e+00
1
Step 455000
Ar -9.998017e-01 0.000000e+00 0.000000e+00
1
Step 456000
Ar -8.589909e-01 0.000000e+00 0.000000e+00
1
Step 457000
Ar -1.025569e+00 0.000000e+00 0.000000e+00
1
Step 458000
Ar -1.076221e+00 0.000000e+00 0.000000e+00
1
Step 459000
Ar -1.078373e+00 0.000000e+00 0.000000e+00
1
Step 460000
Ar -1.077094e+00 0.000000e+00 0.000000e+00
1
Step 461000
Ar -9.494669e-01 0.000000e+00 0.000000e+00
1
Step 462000
Ar -1.086182e+00 0.000000e+00 0.000000e+00
1
Step 463000
Ar -9.774386e-01 0.000000e+00 0.000000e+00
1
Step 464000
Ar -9.833484e-01 0.000000e+00 0.000000e+00
1
Step 465000
Ar -9.914464e-01 0.000000e+00 0.000000e+00
1
Step 466000
Ar -1.022422e+00 0.000000e+00 0.000000e+00
1
Step 467000
Ar -9.004163e-01 0.000000e+00 0.000000e+00
1
Step 468000
Ar -9.384710e-01 0.000000e+00 0.000000e+00
1
Step 469000
Ar -1.088108e+00 0.000000e+00 0.000000e+00
1
Step 470000
Ar -1.092757e+00 0.000000e+00 0.000000e+00
1
Step 471000
Ar -1.005586e+00 0.000000e+00 0.000000e+00
1
Step 472000
Ar -1.099946e+00 0.000000e+00 0.000000e+00
1
Step 473000
Ar -1.006252e+00 0.000000e+00 0.000000e+00
1
Step 474000
Ar -1.083715e+00 0.000000e+00 0.000000e+00
1
Step 475000
Ar -1.007666e+00 0.000000e+00 0.000000e+00
1
Step 476000
Ar -9.107296e-01 0.000000e+00 0.000000e+00
1
Step 477000
Ar -9.108161e-01 0.000000e+00 0.000000e+00
1
Step 478000
Ar -9.110221e-01 0.000000e+00 0.000000e+00
1
Step 479000
Ar -9.138705e-01 0.000000e+00 0.000000e+00
1
Step 480000
Ar -9.146472e-01 0.000000e+00 0.000000e+00
1
Step 481000
Ar -1.038542e+00 0.000000e+00 0.000000e+00
1
Step 482000
Ar -1.019577e+00 0.000000e+00 0.000000e+00
1
Step 483000
Ar -8.596719e-01 0.000000e+00 0.000000e+00
1
Step 484000
Ar -9.042296e-01 0.000000e+00 0.000000e+00
1
Step 485000
Ar -9.046268e-01 0.000000e+00 0.000000e+00
1
Step 486000
Ar -9.419321e-01 0.000000e+00 0.000000e+00
1
Step 487000
Ar -8.628742e-01 0.000000e+00 0.000000e+00
1
Step 488000
Ar -8.908883e-01 0.000000e+00 0.000000e+00
1
Step 489000
Ar -8.953716e-01 0.000000e+00 0.000000e+00
1
Step 490000
Ar -8.948176e-01 0.000000e+00 0.000000e+00
1
Step 491000
Ar -1.104765e+00 0.000000e+00 0.000000e+00
1
Step 492000
Ar -9.818087e-01 0.000000e+00 0.000000e+00
1
Step 493000
Ar -1.016984e+00 0.000000e+00 0.000000e+00
1
Step 494000
Ar -9.316856e-01 0.000000e+00 0.000000e+00
1
Step 495000
Ar -8.872457e-01 0.000000e+00 0.000000e+00
1
Step 496000
Ar -8.728409e-01 0.000000e+00 0.000000e+00
1
Step 497000
Ar -8.765036e-01 0.000000e+00 0.000000e+00
1
Step 498000
Ar -8.745052e-01 0.000000e+00 0.000000e+00
1
Step 499000
Ar -8.803924e-01 0.000000e+00 0.000000e+00
1
Step 500000
Ar -8.754614e-01 0.000000e+00 0.000000e+00
1
Step 501000
Ar -1.046392e+00 0.000000e+00 0.000000e+00
1
Step 502000
Ar -9.363397e-01 0.000000e+00 0.000000e+00
1
Step 503000
Ar -1.008380e+00 0.000000e+00 0.000000e+00
1
Step 504000
Ar -9.225850e-01 0.000000e+00 0.000000e+00
1
Step 505000
Ar -1.102701e+00 0.000000e+00 0.000000e+00
1
Step 506000
Ar -1.025045e+00 0.000000e+00 0.000000e+00
1
Step 507000
Ar -9.421864e-01 0.000000e+00 0.000000e+00
1
Step 508000
Ar -8.991332e-01 0.000000e+00 0.000000e+00
1
Step 509000
Ar -9.757711e-01 0.000000e+00 0.000000e+00
1
Step 510000
Ar -1.053168e+00 0.000000e+00 0.000000e+00
1
Step 511000
Ar -1.066486e+00 0.000000e+00 0.000000e+00
1
Step 512000
Ar -1.066830e+00 0.000000e+00 0.000000e+00
1
Step 513000
Ar -9.283794e-01 0.000000e+00 0.000000e+00
1
Step 514000
Ar -1.020574e+00 0.000000e+00 0.000000e+00
1
Step 515000
Ar -9.438566e-01 0.000000e+00 0.000000e+00
1
Step 516000
Ar -9.927865e-01 0.000000e+00 0.000000e+00
1
Step 517000
Ar -1.081141e+00 0.000000e+00 0.000000e+00
1
Step 518000
Ar -9.367789e-01 0.000000e+00 0.000000e+00
1
Step 519000
Ar -1.082119e+00 0.000000e+00 0.000000e+00
1
Step 520000
Ar -1.069603e+00 0.000000e+00 0.000000e+00
1
Step 521000
Ar -1.029653e+00 0.000000e+00 0.000000e+00
1
Step 522000
Ar -8.667944e-01 0.000000e+00 0.000000e+00
1
Step 523000
Ar -8.670872e-01 0.000000e+00 0.000000e+00
1
Step 524000
Ar -8.702359e-01 0.000000e+00 0.000000e+00
1
Step 525000
Ar -9.004198e-01 0.000000e+00 0.000000e+00
1
Step 526000
Ar -1.042778e+00 0.000000e+00 0.000000e+00
1
Step 527000
Ar -9.507733e-01 0.000000e+00 0.000000e+00
1
Step 528000
Ar -9.810405e-01 0.000000e+00 0.000000e+00
1
Step 529000
Ar -9.998890e-01 0.000000e+00 0.000000e+00
1
Step 530000
Ar -1.098798e+00 0.000000e+00 0.000000e+00
1
Step 531000
Ar -9.810954e-01 0.000000e+00 0.000000e+00
1
Step 532000
Ar -6.733279e-01 0.000000e+00 0.000000e+00
1
Step 533000
Ar -8.324769e-01 0.000000e+00 0.000000e+00
1
Step 534000
Ar -1.111054e+00 0.000000e+00 0.000000e+00
1
Step 535000
Ar -1.112442e+00 0.000000e+00 0.000000e+00
1
Step 536000
Ar -1.118631e+00 0.000000e+00 0.000000e+00
1
Step 537000
Ar -1.125724e+00 0.000000e+00 0.000000e+00
1
Step 538000
Ar -1.115985e+00 0.000000e+00 0.000000e+00
1
Step 539000
Ar -8.644703e-01 0.000000e+00 0.000000e+00
1
Step 540000
Ar -8.631987e-01 0.000000e+00 0.000000e+00
1
Step 541000
Ar -1.121772e+00 0.000000e+00 0.000000e+00
1
Step 542000
Ar -1.118594e+00 0.000000e+00 0.000000e+00
1
Step 543000
Ar -1.120753e+00 0.000000e+00 0.000000e+00
1
Step 544000
Ar -1.118805e+00 0.000000e+00 0.000000e+00
1
Step 545000
Ar -1.118958e+00 0.000000e+00 0.000000e+00
1
Step 546000
Ar -1.131892e+00 0.000000e+00 0.000000e+00
1
Step 547000
Ar -1.127528e+00 0.000000e+00 0.000000e+00
1
Step 548000
Ar -1.128147e+00 0.000000e+00 0.000000e+00
1
Step 549000
Ar -1.125830e+00 0.000000e+00 0.000000e+00
1
Step 550000
Ar -1.125484e+00 0.000000e+00 0.000000e+00
1
Step 551000
Ar -1.080515e+00 0.000000e+00 0.000000e+00
1
Step 552000
Ar -1.082867e+00 0.000000e+00 0.000000e+00
1
Step 553000
Ar -9.206370e-01 0.000000e+00 0.000000e+00
1
Step 554000
Ar -6.923203e-01 0.000000e+00 0.000000e+00
1
Step 555000
Ar -1.204158e+00 0.000000e+00 0.000000e+00
1
Step 556000
Ar -9.531963e-01 0.000000e+00 0.000000e+00
1
Step 557000
Ar -1.054443e+00 0.000000e+00 0.000000e+00
1
Step 558000
Ar -1.182055e+00 0.000000e+00 0.000000e+00
1
Step 559000
Ar -9.698180e-01 0.000000e+00 0.000000e+00
1
Step 560000
Ar -9.808345e-01 0.000000e+00 0.000000e+00
1
Step 561000
Ar -9.694162e-01 0.000000e+00 0.000000e+00
1
Step 562000
Ar -9.760438e-01 0.000000e+00 0.000000e+00
1
Step 563000
Ar -9.759197e-01 0.000000e+00 0.000000e+00
1
Step 564000
Ar -9.681982e-01 0.000000e+00 0.000000e+00
1
Step 565000
Ar -9.757884e-01 0.000000e+00 0.000000e+00
1
Step 566000
Ar -9.504884e-01 0.000000e+00 0.000000e+00
1
Step 567000
Ar -9.536789e-01 0.000000e+00 0.000000e+00
1
Step 568000
Ar -9.658703e-01 0.000000e+00 0.000000e+00
1
Step 569000
Ar -9.574490e-01 0.000000e+00 0.000000e+00
1
Step 570000
Ar -9.484551e-01 0.000000e+00 0.000000e+00
1
Step 571000
Ar -1.014789e+00 0.000000e+00 0.000000e+00
1
Step 572000
Ar -8.501420e-01 0.000000e+00 0.000000e+00
1
Step 573000
Ar -8.514651e-01 0.000000e+00 0.000000e+00
1
Step 574000
Ar -8.546250e-01 0.000000e+00 0.000000e+00
1
Step 575000
Ar -1.082985e+00 0.000000e+00 0.000000e+00
1
Step 576000
Ar -1.010843e+00 0.000000e+00 0.000000e+00
1
Step 577000
Ar -1.129383e+00 0.000000e+00 0.000000e+00
1
Step 578000
Ar -1.132958e+00 0.000000e+00 0.000000e+00
1
Step 579000
Ar -1.133206e+00 0.000000e+00 0.000000e+00
1
Step 580000
Ar -1.134334e+00 0.000000e+00 0.000000e+00
1
Step 581000
Ar -1.101053e+00 0.000000e+00 0.000000e+00
1
Step 582000
Ar -8.840976e-01 0.000000e+00 0.000000e+00
1
Step 583000
Ar -8.806177e-01 0.000000e+00 0.000000e+00
1
Step 584000
Ar -8.767029e-01 0.000000e+00 0.000000e+00
1
Step 585000
Ar -8.354221e-01 0.000000e+00 0.000000e+00
1
Step 586000
Ar -8.788959e-01 0.000000e+00 0.000000e+00
1
Step 587000
Ar -9.683938e-01 0.000000e+00 0.000000e+00
1
Step 588000
Ar -9.665043e-01 0.000000e+00 0.000000e+00
1
Step 589000
Ar -7.611426e-01 0.000000e+00 0.000000e+00
1
Step 590000
Ar -9.672988e-01 0.000000e+00 0.000000e+00
1
Step 591000
Ar -1.059221e+00 0.000000e+00 0.000000e+00
1
Step 592000
Ar -9.335152e-01 0.000000e+00 0.000000e+00
1
Step 593000
Ar -1.057238e+00 0.000000e+00 0.000000e+00
1
Step 594000
Ar -8.855753e-01 0.000000e+00 0.000000e+00
1
Step 595000
Ar -8.830285e-01 0.000000e+00 0.000000e+00
1
Step 596000
Ar -8.738802e-01 0.000000e+00 0.000000e+00
1
Step 597000
Ar -9.559230e-01 0.000000e+00 0.000000e+00
1
Step 598000
Ar -1.053869e+00 0.000000e+00 0.000000e+00
1
Step 599000
Ar -1.167213e+00 0.000000e+00 0.000000e+00
1
Step 600000
Ar -1.186984e+00 0.000000e+00 0.000000e+00
1
Step 601000
Ar -9.865136e-01 0.000000e+00 0.000000e+00
1
Step 602000
Ar -9.056583e-01 0.000000e+00 0.000000e+00
1
Step 603000
Ar -1.168854e+00 0.000000e+00 0.000000e+00
1
Step 604000
Ar -8.721378e-01 0.000000e+00 0.000000e+00
1
Step 605000
Ar -8.130261e-01 0.000000e+00 0.000000e+00
1
Step 606000
Ar -8.218715e-01 0.000000e+00 0.000000e+00
1
Step 607000
Ar -9.965601e-01 0.000000e+00 0.000000e+00
1
Step 608000
Ar -1.187201e+00 0.000000e+00 0.000000e+00
1
Step 609000
Ar -9.590021e-01 0.000000e+00 0.000000e+00
1
Step 610000
Ar -8.746824e-01 0.000000e+00 0.000000e+00
1
Step 611000
Ar -9.892224e-01 0.000000e+00 0.000000e+00
1
Step 612000
Ar -9.924939e-01 0.000000e+00 0.000000e+00
1
Step 613000
Ar -9.223900e-01 0.000000e+00 0.000000e+00
1
Step 614000
Ar -1.001300e+00 0.000000e+00 0.000000e+00
1
Step 615000
Ar -9.031763e-01 0.000000e+00 0.000000e+00
1
Step 616000
Ar -8.903766e-01 0.000000e+00 0.000000e+00
1
Step 617000
Ar -9.705250e-01 0.000000e+00 0.000000e+00
1
Step 618000
Ar -8.373141e-01 0.000000e+00 0.000000e+00
1
Step 619000
Ar -9.612921e-01 0.000000e+00 0.000000e+00
1
Step 620000
Ar -9.592484e-01 0.000000e+00 0.000000e+00
1
Step 621000
Ar -8.735192e-01 0.000000e+00 0.000000e+00
1
Step 622000
Ar -8.517930e-01 0.000000e+00 0.000000e+00
1
Step 623000
Ar -8.544110e-01 0.000000e+00 0.000000e+00
1
Step 624000
Ar -8.541693e-01 0.000000e+00 0.000000e+00
1
Step 625000
Ar -8.540156e-01 0.000000e+00 0.000000e+00
1
Step 626000
Ar -9.266688e-01 0.000000e+00 0.000000e+00
1
Step 627000
Ar -1.123545e+00 0.000000e+00 0.000000e+00
1
Step 628000
Ar -8.654354e-01 0.000000e+00 0.000000e+00
1
Step 629000
Ar -1.040490e+00 0.000000e+00 0.000000e+00
1
Step 630000
Ar -1.002173e+00 0.000000e+00 0.000000e+00
1
Step 631000
Ar -9.873961e-01 0.000000e+00 0.000000e+00
1
Step 632000
Ar -9.924580e-01 0.000000e+00 0.000000e+00
1
Step 633000
Ar -9.879718e-01 0.000000e+00 0.000000e+00
1
Step 634000
Ar -9.892715e-01 0.000000e+00 0.000000e+00
1
Step 635000
Ar -9.847835e-01 0.000000e+00 0.000000e+00
1
Step 636000
Ar -9.522523e-01 0.000000e+00 0.000000e+00
1
Step 637000
Ar -8.643262e-01 0.000000e+00 0.000000e+00
1
Step 638000
Ar -1.023080e+00 0.000000e+00 0.000000e+00
1
Step 639000
Ar -8.293406e-01 0.000000e+00 0.000000e+00
1
Step 640000
Ar -1.193492e+00 0.000000e+00 0.000000e+00
1
Step 641000
Ar -8.663381e-01 0.000000e+00 0.000000e+00
1
Step 642000
Ar -1.184493e+00 0.000000e+00 0.000000e+00
1
Step 643000
Ar -1.017738e+00 0.000000e+00 0.000000e+00
1
Step 644000
Ar -1.008337e+00 0.000000e+00 0.000000e+00
1
Step 645000
Ar -1.082240e+00 0.000000e+00 0.000000e+00
1
Step 646000
Ar -1.069555e+00 0.000000e+00 0.000000e+00
1
Step 647000
Ar -7.390001e-01 0.000000e+00 0.000000e+00
1
Step 648000
Ar -6.807003e-01 0.000000e+00 0.000000e+00
1
Step 649000
Ar -1.216477e+00 0.000000e+00 0.000000e+00
1
Step 650000