1
Step 120000
Ar 1.009040e+00 0.000000e+00 0.000000e+00
1
Step 121000
Ar 8.148428e-01 0.000000e+00 0.000000e+00
1
Step 122000
Ar 1.036348e+00 0.000000e+00 0.000000e+00
1
Step 123000
Ar 9.012432e-01 0.000000e+00 0.000000e+00
1
Step 124000
Ar 9.775658e-01 0.000000e+00 0.000000e+00
1
Step 125000
Ar 8.537809e-01 0.000000e+00 0.000000e+00
1
Step 126000
Ar 7.791612e-01 0.000000e+00 0.000000e+00
1
Step 127000
Ar 7.680372e-01 0.000000e+00 0.000000e+00
1
Step 128000
Ar 6.154568e-01 0.000000e+00 0.000000e+00
1
Step 129000
Ar 7.496223e-01 0.000000e+00 0.000000e+00
1
Step 130000
Ar 7.878569e-01 0.000000e+00 0.000000e+00
1
Step 131000
Ar 7.893404e-01 0.000000e+00 0.000000e+00
1
Step 132000
Ar 8.391365e-01 0.000000e+00 0.000000e+00
1
Step 133000
Ar 8.257461e-01 0.000000e+00 0.000000e+00
1
Step 134000
Ar 9.800688e-01 0.000000e+00 0.000000e+00
1
Step 135000
Ar 1.062243e+00 0.000000e+00 0.000000e+00
1
Step 136000
Ar 1.002186e+00 0.000000e+00 0.000000e+00
1
Step 137000
Ar 9.439092e-01 0.000000e+00 0.000000e+00
1
Step 138000
Ar 9.979980e-01 0.000000e+00 0.000000e+00
1
Step 139000
Ar 1.004555e+00 0.000000e+00 0.000000e+00
1
Step 140000
Ar 8.868035e-01 0.000000e+00 0.000000e+00
1
Step 141000
Ar 8.852857e-01 0.000000e+00 0.000000e+00
1
Step 142000
Ar 8.902739e-01 0.000000e+00 0.000000e+00
1
Step 143000
Ar 8.710120e-01 0.000000e+00 0.000000e+00
1
Step 144000
Ar 8.916404e-01 0.000000e+00 0.000000e+00
1
Step 145000
Ar 8.852823e-01 0.000000e+00 0.000000e+00
1
Step 146000
Ar 8.053254e-01 0.000000e+00 0.000000e+00
1
Step 147000
Ar 8.029361e-01 0.000000e+00 0.000000e+00
1
Step 148000
Ar 4.378802e-01 0.000000e+00 0.000000e+00
1
Step 149000
Ar 6.426631e-01 0.000000e+00 0.000000e+00
1
Step 150000
Ar 7.533256e-01 0.000000e+00 0.000000e+00
1
Step 151000
Ar 7.319015e-01 0.000000e+00 0.000000e+00
1
Step 152000
Ar 7.077317e-01 0.000000e+00 0.000000e+00
1
Step 153000
Ar 6.949495e-01 0.000000e+00 0.000000e+00
1
Step 154000
Ar 6.210605e-01 0.000000e+00 0.000000e+00
1
Step 155000
Ar 5.496112e-01 0.000000e+00 0.000000e+00
1
Step 156000
Ar 7.456847e-01 0.000000e+00 0.000000e+00
1
Step 157000
Ar 5.312030e-01 0.000000e+00 0.000000e+00
1
Step 158000
Ar 7.096677e-01 0.000000e+00 0.000000e+00
1
Step 159000
Ar 7.592967e-01 0.000000e+00 0.000000e+00
1
Step 160000
Ar 5.794472e-01 0.000000e+00 0.000000e+00
1
Step 161000
Ar 6.018051e-01 0.000000e+00 0.000000e+00
1
Step 162000
Ar 6.404225e-01 0.000000e+00 0.000000e+00
1
Step 163000
Ar 6.532461e-01 0.000000e+00 0.000000e+00
1
Step 164000
Ar 5.673655e-01 0.000000e+00 0.000000e+00
1
Step 165000
Ar 7.246859e-01 0.000000e+00 0.000000e+00
1
Step 166000
Ar 5.958595e-01 0.000000e+00 0.000000e+00
1
Step 167000
Ar 6.635635e-01 0.000000e+00 0.000000e+00
1
Step 168000
Ar 5.726289e-01 0.000000e+00 0.000000e+00
1
Step 169000
Ar 6.655483e-01 0.000000e+00 0.000000e+00
1
Step 170000
Ar 6.905537e-01 0.000000e+00 0.000000e+00
1
Step 171000
Ar 6.804244e-01 0.000000e+00 0.000000e+00
1
Step 172000
Ar 6.173687e-01 0.000000e+00 0.000000e+00
1
Step 173000
Ar 5.836691e-01 0.000000e+00 0.000000e+00
1
Step 174000
Ar 6.056057e-01 0.000000e+00 0.000000e+00
1
Step 175000
Ar 5.881580e-01 0.000000e+00 0.000000e+00
1
Step 176000
Ar 6.018901e-01 0.000000e+00 0.000000e+00
1
Step 177000
Ar 5.946762e-01 0.000000e+00 0.000000e+00
1
Step 178000
Ar 5.959613e-01 0.000000e+00 0.000000e+00
1
Step 179000
Ar 5.967902e-01 0.000000e+00 0.000000e+00
1
Step 180000
Ar 5.909399e-01 0.000000e+00 0.000000e+00
1
Step 181000
Ar 5.521280e-01 0.000000e+00 0.000000e+00
1
Step 182000
Ar 5.500549e-01 0.000000e+00 0.000000e+00
1
Step 183000
Ar 5.703401e-01 0.000000e+00 0.000000e+00
1
Step 184000
Ar 5.622375e-01 0.000000e+00 0.000000e+00
1
Step 185000
Ar 6.033179e-01 0.000000e+00 0.000000e+00
1
Step 186000
Ar 5.823805e-01 0.000000e+00 0.000000e+00
1
Step 187000
Ar 5.832725e-01 0.000000e+00 0.000000e+00
1
Step 188000
Ar 5.643768e-01 0.000000e+00 0.000000e+00
1
Step 189000
Ar 5.451789e-01 0.000000e+00 0.000000e+00
1
Step 190000
Ar 5.980224e-01 0.000000e+00 0.000000e+00
1
Step 191000
Ar 5.496601e-01 0.000000e+00 0.000000e+00
1
Step 192000
Ar 5.519096e-01 0.000000e+00 0.000000e+00
1
Step 193000
Ar 6.164461e-04 0.000000e+00 0.000000e+00
1
Step 194000
Ar 5.093696e-01 0.000000e+00 0.000000e+00
1
Step 195000
Ar 2.627885e-01 0.000000e+00 0.000000e+00
1
Step 196000
Ar 5.027020e-01 0.000000e+00 0.000000e+00
1
Step 197000
Ar 4.345105e-01 0.000000e+00 0.000000e+00
1
Step 198000
Ar 3.521417e-01 0.000000e+00 0.000000e+00
1
Step 199000
Ar -9.360319e-01 0.000000e+00 0.000000e+00
1
Step 200000
Ar -1.056581e+00 0.000000e+00 0.000000e+00
1
Step 201000
Ar -1.118637e+00 0.000000e+00 0.000000e+00
1
Step 202000
Ar -1.186185e+00 0.000000e+00 0.000000e+00
1
Step 203000
Ar -1.089226e+00 0.000000e+00 0.000000e+00
1
Step 204000
Ar -9.385212e-01 0.000000e+00 0.000000e+00
1
Step 205000
Ar -1.138148e+00 0.000000e+00 0.000000e+00
1
Step 206000
Ar -1.179218e+00 0.000000e+00 0.000000e+00
1
Step 207000
Ar -9.320804e-01 0.000000e+00 0.000000e+00
1
Step 208000
Ar -1.067209e+00 0.000000e+00 0.000000e+00
1
Step 209000
Ar -9.737260e-01 0.000000e+00 0.000000e+00
1
Step 210000
Ar -8.769650e-01 0.000000e+00 0.000000e+00
1
Step 211000
Ar -6.835681e-01 0.000000e+00 0.000000e+00
1
Step 212000
Ar -3.586935e-01 0.000000e+00 0.000000e+00
1
Step 213000
Ar -6.610822e-01 0.000000e+00 0.000000e+00
1
Step 214000
Ar -7.132833e-01 0.000000e+00 0.000000e+00
1
Step 215000
Ar -7.582231e-01 0.000000e+00 0.000000e+00
1
Step 216000
Ar -7.525686e-01 0.000000e+00 0.000000e+00
1
Step 217000
Ar -7.316322e-01 0.000000e+00 0.000000e+00
1
Step 218000
Ar -3.115044e-01 0.000000e+00 0.000000e+00
1
Step 219000
Ar -7.113504e-01 0.000000e+00 0.000000e+00
1
Step 220000
Ar -7.124309e-01 0.000000e+00 0.000000e+00
1
Step 221000
Ar -7.267587e-01 0.000000e+00 0.000000e+00
1
Step 222000
Ar -6.695784e-01 0.000000e+00 0.000000e+00
1
Step 223000
Ar -7.264887e-01 0.000000e+00 0.000000e+00
1
Step 224000
Ar -7.231475e-01 0.000000e+00 0.000000e+00
1
Step 225000
Ar -6.820471e-01 0.000000e+00 0.000000e+00
1
Step 226000
Ar -7.056315e-01 0.000000e+00 0.000000e+00
1
Step 227000
Ar -7.041900e-01 0.000000e+00 0.000000e+00
1
Step 228000
Ar -5.247860e-01 0.000000e+00 0.000000e+00
1
Step 229000
Ar -7.168105e-01 0.000000e+00 0.000000e+00
1
Step 230000
Ar -7.331719e-01 0.000000e+00 0.000000e+00
1
Step 231000
Ar -6.741700e-01 0.000000e+00 0.000000e+00
1
Step 232000
Ar -7.133939e-01 0.000000e+00 0.000000e+00
1
Step 233000
Ar -6.936018e-01 0.000000e+00 0.000000e+00
1
Step 234000
Ar -3.353635e-01 0.000000e+00 0.000000e+00
1
Step 235000
Ar -6.451343e-01 0.000000e+00 0.000000e+00
1
Step 236000
Ar -7.047225e-01 0.000000e+00 0.000000e+00
1
Step 237000
Ar -2.624177e-01 0.000000e+00 0.000000e+00
1
Step 238000
Ar -6.785143e-01 0.000000e+00 0.000000e+00
1
Step 239000
Ar -6.353791e-01 0.000000e+00 0.000000e+00
1
Step 240000
Ar -6.693842e-01 0.000000e+00 0.000000e+00
1
Step 241000
Ar -6.151053e-01 0.000000e+00 0.000000e+00
1
Step 242000
Ar -6.879434e-01 0.000000e+00 0.000000e+00
1
Step 243000
Ar -5.932211e-01 0.000000e+00 0.000000e+00
1
Step 244000
Ar -6.121149e-01 0.000000e+00 0.000000e+00
1
Step 245000
Ar -6.152696e-01 0.000000e+00 0.000000e+00
1
Step 246000
Ar -6.434840e-01 0.000000e+00 0.000000e+00
1
Step 247000
Ar -6.301406e-01 0.000000e+00 0.000000e+00
1
Step 248000
Ar -6.186237e-01 0.000000e+00 0.000000e+00
1
Step 249000
Ar -5.158603e-01 0.000000e+00 0.000000e+00
1
Step 250000
Ar -4.177732e-01 0.000000e+00 0.000000e+00
1
Step 251000
Ar -6.324228e-01 0.000000e+00 0.000000e+00
1
Step 252000
Ar 4.051930e-01 0.000000e+00 0.000000e+00
1
Step 253000
Ar -4.403752e-01 0.000000e+00 0.000000e+00
1
Step 254000
Ar -6.264520e-01 0.000000e+00 0.000000e+00
1
Step 255000
Ar -6.073341e-01 0.000000e+00 0.000000e+00
1
Step 256000
Ar -6.439273e-01 0.000000e+00 0.000000e+00
1
Step 257000
Ar -6.478407e-01 0.000000e+00 0.000000e+00
1
Step 258000
Ar -5.993649e-01 0.000000e+00 0.000000e+00
1
Step 259000
Ar -6.234604e-01 0.000000e+00 0.000000e+00
1
Step 260000
Ar -6.170617e-01 0.000000e+00 0.000000e+00
1
Step 261000
Ar -6.085066e-01 0.000000e+00 0.000000e+00
1
Step 262000
Ar -6.196558e-01 0.000000e+00 0.000000e+00
1
Step 263000
Ar -6.146832e-01 0.000000e+00 0.000000e+00
1
Step 264000
Ar -5.999698e-01 0.000000e+00 0.000000e+00
1
Step 265000
Ar -6.134382e-01 0.000000e+00 0.000000e+00
1
Step 266000
Ar -6.731709e-01 0.000000e+00 0.000000e+00
1
Step 267000
Ar -6.678681e-01 0.000000e+00 0.000000e+00
1
Step 268000
Ar -6.729164e-01 0.000000e+00 0.000000e+00
1
Step 269000
Ar -6.729729e-01 0.000000e+00 0.000000e+00
1
Step 270000
Ar -6.721415e-01 0.000000e+00 0.000000e+00
1
Step 271000
Ar -6.719151e-01 0.000000e+00 0.000000e+00
1
Step 272000
Ar -6.763264e-01 0.000000e+00 0.000000e+00
1
Step 273000
Ar -6.751705e-01 0.000000e+00 0.000000e+00
1
Step 274000
Ar -7.781279e-01 0.000000e+00 0.000000e+00
1
Step 275000
Ar -7.668550e-01 0.000000e+00 0.000000e+00
1
Step 276000
Ar -7.761260e-01 0.000000e+00 0.000000e+00
1
Step 277000
Ar -7.750463e-01 0.000000e+00 0.000000e+00
1
Step 278000
Ar -9.256750e-01 0.000000e+00 0.000000e+00
1
Step 279000
Ar -8.858648e-01 0.000000e+00 0.000000e+00
1
Step 280000
Ar -8.943708e-01 0.000000e+00 0.000000e+00
1
Step 281000
Ar -9.247146e-01 0.000000e+00 0.000000e+00
1
Step 282000
Ar -1.088016e+00 0.000000e+00 0.000000e+00
1
Step 283000
Ar -1.141001e+00 0.000000e+00 0.000000e+00
1
Step 284000
Ar -1.145485e+00 0.000000e+00 0.000000e+00
1
Step 285000
Ar -9.767772e-01 0.000000e+00 0.000000e+00
1
Step 286000
Ar -1.062139e+00 0.000000e+00 0.000000e+00
1
Step 287000
Ar -9.820853e-01 0.000000e+00 0.000000e+00
1
Step 288000
Ar -1.158750e+00 0.000000e+00 0.000000e+00
1
Step 289000
Ar -1.112115e+00 0.000000e+00 0.000000e+00
1
Step 290000
Ar -1.042860e+00 0.000000e+00 0.000000e+00
1
Step 291000
Ar -9.667279e-01 0.000000e+00 0.000000e+00
1
Step 292000
Ar -1.011602e+00 0.000000e+00 0.000000e+00
1
Step 293000
Ar -1.147977e+00 0.000000e+00 0.000000e+00
1
Step 294000
Ar -1.184424e+00 0.000000e+00 0.000000e+00
1
Step 295000
Ar -1.259609e+00 0.000000e+00 0.000000e+00
1
Step 296000
Ar -1.285233e+00 0.000000e+00 0.000000e+00
1
Step 297000
Ar -1.221942e+00 0.000000e+00 0.000000e+00
1
Step 298000
Ar -1.192887e+00 0.000000e+00 0.000000e+00
1
Step 299000
Ar -1.279552e+00 0.000000e+00 0.000000e+00
1
Step 300000
Ar -1.283137e+00 0.000000e+00 0.000000e+00
1
Step 301000
Ar -1.283405e+00 0.000000e+00 0.000000e+00
1
Step 302000
Ar -1.342066e+00 0.000000e+00 0.000000e+00
1
Step 303000
Ar -1.287804e+00 0.000000e+00 0.000000e+00
1
Step 304000
Ar -1.304754e+00 0.000000e+00 0.000000e+00
1
Step 305000
Ar -1.305367e+00 0.000000e+00 0.000000e+00
1
Step 306000
Ar -1.290689e+00 0.000000e+00 0.000000e+00
1
Step 307000
Ar -1.302514e+00 0.000000e+00 0.000000e+00
1
Step 308000
Ar -1.297606e+00 0.000000e+00 0.000000e+00
1
Step 309000
Ar -1.286882e+00 0.000000e+00 0.000000e+00
1
Step 310000
Ar -1.456006e+00 0.000000e+00 0.000000e+00
1
Step 311000
Ar -1.433055e+00 0.000000e+00 0.000000e+00
1
Step 312000
Ar -1.457789e+00 0.000000e+00 0.000000e+00
1
Step 313000
Ar -1.401978e+00 0.000000e+00 0.000000e+00
1
Step 314000
Ar -1.424421e+00 0.000000e+00 0.000000e+00
1
Step 315000
Ar -1.423611e+00 0.000000e+00 0.000000e+00
1
Step 316000
Ar -1.428222e+00 0.000000e+00 0.000000e+00
1
Step 317000
Ar -1.437311e+00 0.000000e+00 0.000000e+00
1
Step 318000
Ar -1.454038e+00 0.000000e+00 0.000000e+00
1
Step 319000
Ar -1.443671e+00 0.000000e+00 0.000000e+00
1
Step 320000
Ar -1.448986e+00 0.000000e+00 0.000000e+00
1
Step 321000
Ar -1.158178e+00 0.000000e+00 0.000000e+00
1
Step 322000
Ar -1.163205e+00 0.000000e+00 0.000000e+00
1
Step 323000
Ar -9.857785e-01 0.000000e+00 0.000000e+00
1
Step 324000
Ar -9.957744e-01 0.000000e+00 0.000000e+00
1
Step 325000
Ar -1.050655e+00 0.000000e+00 0.000000e+00
1
Step 326000
Ar -1.070757e+00 0.000000e+00 0.000000e+00
1
Step 327000
Ar -1.075511e+00 0.000000e+00 0.000000e+00
1
Step 328000
Ar -1.045141e+00 0.000000e+00 0.000000e+00
1
Step 329000
Ar -9.713223e-01 0.000000e+00 0.000000e+00
1
Step 330000
Ar -1.062533e+00 0.000000e+00 0.000000e+00
1
Step 331000
Ar -1.043407e+00 0.000000e+00 0.000000e+00
1
Step 332000
Ar -1.008882e+00 0.000000e+00 0.000000e+00
1
Step 333000
Ar -1.003029e+00 0.000000e+00 0.000000e+00
1
Step 334000
Ar -1.024413e+00 0.000000e+00 0.000000e+00
1
Step 335000
Ar -1.067563e+00 0.000000e+00 0.000000e+00
1
Step 336000
Ar -1.013344e+00 0.000000e+00 0.000000e+00
1
Step 337000
Ar -1.068020e+00 0.000000e+00 0.000000e+00
1
Step 338000
Ar -1.052235e+00 0.000000e+00 0.000000e+00
1
Step 339000
Ar -1.005900e+00 0.000000e+00 0.000000e+00
1
Step 340000
Ar -1.057181e+00 0.000000e+00 0.000000e+00
1
Step 341000
Ar -1.069066e+00 0.000000e+00 0.000000e+00
1
Step 342000
Ar -1.071209e+00 0.000000e+00 0.000000e+00
1
Step 343000
Ar -1.003056e+00 0.000000e+00 0.000000e+00
1
Step 344000
Ar -1.037142e+00 0.000000e+00 0.000000e+00
1
Step 345000
Ar -1.030954e+00 0.000000e+00 0.000000e+00
1
Step 346000
Ar -1.034777e+00 0.000000e+00 0.000000e+00
1
Step 347000
Ar -1.003194e+00 0.000000e+00 0.000000e+00
1
Step 348000
Ar -1.014625e+00 0.000000e+00 0.000000e+00
1
Step 349000
Ar -1.026563e+00 0.000000e+00 0.000000e+00
1
Step 350000
Ar -1.017229e+00 0.000000e+00 0.000000e+00
1
Step 351000
Ar -1.004099e+00 0.000000e+00 0.000000e+00
1
Step 352000
Ar -1.024900e+00 0.000000e+00 0.000000e+00
1
Step 353000
Ar -1.013231e+00 0.000000e+00 0.000000e+00
1
Step 354000
Ar -1.009159e+00 0.000000e+00 0.000000e+00
1
Step 355000
Ar -1.010334e+00 0.000000e+00 0.000000e+00
1
Step 356000
Ar -1.022124e+00 0.000000e+00 0.000000e+00
1
Step 357000
Ar -1.036108e+00 0.000000e+00 0.000000e+00
1
Step 358000
Ar -1.112660e+00 0.000000e+00 0.000000e+00
1
Step 359000
Ar -1.127804e+00 0.000000e+00 0.000000e+00
1
Step 360000
Ar -1.134834e+00 0.000000e+00 0.000000e+00
1
Step 361000
Ar -1.131200e+00 0.000000e+00 0.000000e+00
1
Step 362000
Ar -1.123634e+00 0.000000e+00 0.000000e+00
1
Step 363000
Ar -1.130943e+00 0.000000e+00 0.000000e+00
1
Step 364000
Ar -1.151565e+00 0.000000e+00 0.000000e+00
1
Step 365000
Ar -1.134750e+00 0.000000e+00 0.000000e+00
1
Step 366000
Ar -1.135685e+00 0.000000e+00 0.000000e+00
1
Step 367000
Ar -1.133933e+00 0.000000e+00 0.000000e+00
1
Step 368000
Ar -1.133063e+00 0.000000e+00 0.000000e+00
1
Step 369000
Ar -1.240791e+00 0.000000e+00 0.000000e+00
1
Step 370000
Ar -1.214070e+00 0.000000e+00 0.000000e+00
1
Step 371000
Ar -1.203910e+00 0.000000e+00 0.000000e+00
1
Step 372000
Ar -1.212781e+00 0.000000e+00 0.000000e+00
1
Step 373000
Ar -1.247151e+00 0.000000e+00 0.000000e+00
1
Step 374000
Ar -1.233693e+00 0.000000e+00 0.000000e+00
1
Step 375000
Ar -1.030255e+00 0.000000e+00 0.000000e+00
1
Step 376000
Ar -1.036802e+00 0.000000e+00 0.000000e+00
1
Step 377000
Ar -1.035990e+00 0.000000e+00 0.000000e+00
1
Step 378000
Ar -1.038406e+00 0.000000e+00 0.000000e+00
1
Step 379000
Ar -1.001160e+00 0.000000e+00 0.000000e+00
1
Step 380000
Ar -1.010056e+00 0.000000e+00 0.000000e+00
1
Step 381000
Ar -1.007550e+00 0.000000e+00 0.000000e+00
1
Step 382000
Ar -1.013081e+00 0.000000e+00 0.000000e+00
1
Step 383000
Ar -1.030214e+00 0.000000e+00 0.000000e+00
1
Step 384000
Ar -9.717137e-01 0.000000e+00 0.000000e+00
1
Step 385000
Ar -9.286003e-01 0.000000e+00 0.000000e+00
1
Step 386000
Ar -9.302776e-01 0.000000e+00 0.000000e+00
1
Step 387000
Ar -9.240116e-01 0.000000e+00 0.000000e+00
1
Step 388000
Ar -9.327359e-01 0.000000e+00 0.000000e+00
1
Step 389000
Ar -9.212439e-01 0.000000e+00 0.000000e+00
1
Step 390000
Ar -9.260215e-01 0.000000e+00 0.000000e+00
1
Step 391000
Ar -9.371747e-01 0.000000e+00 0.000000e+00
1
Step 392000
Ar -9.275790e-01 0.000000e+00 0.000000e+00
1
Step 393000
Ar -9.586540e-01 0.000000e+00 0.000000e+00
1
Step 394000
Ar -8.767752e-01 0.000000e+00 0.000000e+00
1
Step 395000
Ar -8.890988e-01 0.000000e+00 0.000000e+00
1
Step 396000
Ar -8.762610e-01 0.000000e+00 0.000000e+00
1
Step 397000
Ar -8.746050e-01 0.000000e+00 0.000000e+00
1
Step 398000
Ar -8.856423e-01 0.000000e+00 0.000000e+00
1
Step 399000
Ar -8.764460e-01 0.000000e+00 0.000000e+00
1
Step 400000
Ar -8.701088e-01 0.000000e+00 0.000000e+00
1
Step 401000
Ar -8.855149e-01 0.000000e+00 0.000000e+00
1
Step 402000
Ar -8.801924e-01 0.000000e+00 0.000000e+00
1
Step 403000
Ar -8.798053e-01 0.000000e+00 0.000000e+00
1
Step 404000
Ar -8.762953e-01 0.000000e+00 0.000000e+00
1
Step 405000
Ar -8.703418e-01 0.000000e+00 0.000000e+00
1
Step 406000
Ar -7.233268e-01 0.000000e+00 0.000000e+00
1
Step 407000
Ar -7.218034e-01 0.000000e+00 0.000000e+00
1
Step 408000
Ar -7.281226e-01 0.000000e+00 0.000000e+00
1
Step 409000
Ar -7.313045e-01 0.000000e+00 0.000000e+00
1
Step 410000
Ar -7.285231e-01 0.000000e+00 0.000000e+00
1
Step 411000
Ar -7.246373e-01 0.000000e+00 0.000000e+00
1
Step 412000
Ar -8.662375e-01 0.000000e+00 0.000000e+00
1
Step 413000
Ar -5.397534e-01 0.000000e+00 0.000000e+00
1
Step 414000
Ar -5.394660e-01 0.000000e+00 0.000000e+00
1
Step 415000
Ar -5.408957e-01 0.000000e+00 0.000000e+00
1
Step 416000
Ar -5.421945e-01 0.000000e+00 0.000000e+00
1
Step 417000
Ar -5.410189e-01 0.000000e+00 0.000000e+00
1
Step 418000
Ar -5.356129e-01 0.000000e+00 0.000000e+00
1
Step 419000
Ar -5.421066e-01 0.000000e+00 0.000000e+00
1
Step 420000
Ar 2.903002e-02 0.000000e+00 0.000000e+00
1
Step 421000
Ar 4.787039e-01 0.000000e+00 0.000000e+00
1
Step 422000
Ar 3.874020e-01 0.000000e+00 0.000000e+00
1
Step 423000
Ar 4.324416e-01 0.000000e+00 0.000000e+00
1
Step 424000
Ar 4.433558e-01 0.000000e+00 0.000000e+00
1
Step 425000
Ar 4.832805e-01 0.000000e+00 0.000000e+00
1
Step 426000
Ar 4.956194e-01 0.000000e+00 0.000000e+00
1
Step 427000
Ar 4.847763e-01 0.000000e+00 0.000000e+00
1
Step 428000
Ar 4.449265e-01 0.000000e+00 0.000000e+00
1
Step 429000
Ar 4.774439e-01 0.000000e+00 0.000000e+00
1
Step 430000
Ar 4.950549e-01 0.000000e+00 0.000000e+00
1
Step 431000
Ar 4.774570e-01 0.000000e+00 0.000000e+00
1
Step 432000
Ar 4.739773e-01 0.000000e+00 0.000000e+00
1
Step 433000
Ar 4.887668e-01 0.000000e+00 0.000000e+00
1
Step 434000
Ar 1.210265e+00 0.000000e+00 0.000000e+00
1
Step 435000
Ar 1.103266e+00 0.000000e+00 0.000000e+00
1
Step 436000
Ar 1.191212e+00 0.000000e+00 0.000000e+00
1
Step 437000
Ar 1.117750e+00 0.000000e+00 0.000000e+00
1
Step 438000
Ar 1.038113e+00 0.000000e+00 0.000000e+00
1
Step 439000
Ar 1.056563e+00 0.000000e+00 0.000000e+00
1
Step 440000
Ar 1.135031e+00 0.000000e+00 0.000000e+00
1
Step 441000
Ar 1.190088e+00 0.000000e+00 0.000000e+00
1
Step 442000
Ar 1.208437e+00 0.000000e+00 0.000000e+00
1
Step 443000
Ar 1.189963e+00 0.000000e+00 0.000000e+00
1
Step 444000
Ar 1.225093e+00 0.000000e+00 0.000000e+00
1
Step 445000
Ar 1.243775e+00 0.000000e+00 0.000000e+00
1
Step 446000
Ar 1.232875e+00 0.000000e+00 0.000000e+00
1
Step 447000
Ar 1.134681e+00 0.000000e+00 0.000000e+00
1
Step 448000
Ar 1.132551e+00 0.000000e+00 0.000000e+00
1
Step 449000
Ar 1.140978e+00 0.000000e+00 0.000000e+00
1
Step 450000
Ar 1.121337e+00 0.000000e+00 0.000000e+00
1
Step 451000
Ar 1.123022e+00 0.000000e+00 0.000000e+00
1
Step 452000
Ar 1.120035e+00 0.000000e+00 0.000000e+00
1
Step 453000
Ar 1.135141e+00 0.000000e+00 0.000000e+00
1
Step 454000
Ar 9.425898e-01 0.000000e+00 0.000000e+00
1
Step 455000
Ar 9.475140e-01 0.000000e+00 0.000000e+00
1
Step 456000
Ar 9.876738e-01 0.000000e+00 0.000000e+00
1
Step 457000
Ar 9.870632e-01 0.000000e+00 0.000000e+00
1
Step 458000
Ar 9.573026e-01 0.000000e+00 0.000000e+00
1
Step 459000
Ar 9.888597e-01 0.000000e+00 0.000000e+00
1
Step 460000
Ar 9.487871e-01 0.000000e+00 0.000000e+00
1
Step 461000
Ar 9.675540e-01 0.000000e+00 0.000000e+00
1
Step 462000
Ar 9.774114e-01 0.000000e+00 0.000000e+00
1
Step 463000
Ar 9.899755e-01 0.000000e+00 0.000000e+00
1
Step 464000
Ar 9.512947e-01 0.000000e+00 0.000000e+00
1
Step 465000
Ar 9.443169e-01 0.000000e+00 0.000000e+00
1
Step 466000
Ar 9.561640e-01 0.000000e+00 0.000000e+00
1
Step 467000
Ar 9.603598e-01 0.000000e+00 0.000000e+00
1
Step 468000
Ar 9.658451e-01 0.000000e+00 0.000000e+00
1
Step 469000
Ar 9.441967e-01 0.000000e+00 0.000000e+00
1
Step 470000
Ar 8.679188e-01 0.000000e+00 0.000000e+00
1
Step 471000
Ar 8.489427e-01 0.000000e+00 0.000000e+00
1
Step 472000
Ar 8.280234e-01 0.000000e+00 0.000000e+00
1
Step 473000
Ar 1.285028e+00 0.000000e+00 0.000000e+00
1
Step 474000
Ar 1.225187e+00 0.000000e+00 0.000000e+00
1
Step 475000
Ar 1.237528e+00 0.000000e+00 0.000000e+00
1
Step 476000
Ar 1.247668e+00 0.000000e+00 0.000000e+00
1
Step 477000
Ar 1.217219e+00 0.000000e+00 0.000000e+00
1
Step 478000
Ar 1.268200e+00 0.000000e+00 0.000000e+00
1
Step 479000
Ar 1.219400e+00 0.000000e+00 0.000000e+00
1
Step 480000
Ar 1.301520e+00 0.000000e+00 0.000000e+00
1
Step 481000
Ar 1.306286e+00 0.000000e+00 0.000000e+00
1
Step 482000
Ar 1.340295e+00 0.000000e+00 0.000000e+00
1
Step 483000
Ar 1.320731e+00 0.000000e+00 0.000000e+00
1
Step 484000
Ar 1.331775e+00 0.000000e+00 0.000000e+00
1
Step 485000
Ar 1.350022e+00 0.000000e+00 0.000000e+00
1
Step 486000
Ar 1.366070e+00 0.000000e+00 0.000000e+00
1
Step 487000
Ar 1.337147e+00 0.000000e+00 0.000000e+00
1
Step 488000
Ar 1.227928e+00 0.000000e+00 0.000000e+00
1
Step 489000
Ar 1.235035e+00 0.000000e+00 0.000000e+00
1
Step 490000
Ar 1.187760e+00 0.000000e+00 0.000000e+00
1
Step 491000
Ar 1.185988e+00 0.000000e+00 0.000000e+00
1
Step 492000
Ar 1.281355e+00 0.000000e+00 0.000000e+00
1
Step 493000
Ar 1.269748e+00 0.000000e+00 0.000000e+00
1
Step 494000
Ar 1.279279e+00 0.000000e+00 0.000000e+00
1
Step 495000
Ar 1.278173e+00 0.000000e+00 0.000000e+00
1
Step 496000
Ar 1.271004e+00 0.000000e+00 0.000000e+00
1
Step 497000
Ar 1.271909e+00 0.000000e+00 0.000000e+00
1
Step 498000
Ar 1.230087e+00 0.000000e+00 0.000000e+00
1
Step 499000
Ar 1.224185e+00 0.000000e+00 0.000000e+00
1
Step 500000
Ar 1.222751e+00 0.000000e+00 0.000000e+00
1
Step 501000
Ar 1.000075e+00 0.000000e+00 0.000000e+00
1
Step 502000
Ar 9.996095e-01 0.000000e+00 0.000000e+00
1
Step 503000
Ar 9.954471e-01 0.000000e+00 0.000000e+00
1
Step 504000
Ar 9.986890e-01 0.000000e+00 0.000000e+00
1
Step 505000
Ar 1.001589e+00 0.000000e+00 0.000000e+00
1
Step 506000
Ar 9.982148e-01 0.000000e+00 0.000000e+00
1
Step 507000
Ar 9.999895e-01 0.000000e+00 0.000000e+00
1
Step 508000
Ar 1.029104e+00 0.000000e+00 0.000000e+00
1
Step 509000
Ar 1.038763e+00 0.000000e+00 0.000000e+00
1
Step 510000
Ar 1.022132e+00 0.000000e+00 0.000000e+00
1
Step 511000
Ar 1.027088e+00 0.000000e+00 0.000000e+00
1
Step 512000
Ar 1.024824e+00 0.000000e+00 0.000000e+00
1
Step 513000
Ar 1.022755e+00 0.000000e+00 0.000000e+00
1
Step 514000
Ar 1.017960e+00 0.000000e+00 0.000000e+00
1
Step 515000
Ar 1.022228e+00 0.000000e+00 0.000000e+00
1
Step 516000
Ar 1.117562e+00 0.000000e+00 0.000000e+00
1
Step 517000
Ar 1.114287e+00 0.000000e+00 0.000000e+00
1
Step 518000
Ar 1.021283e+00 0.000000e+00 0.000000e+00
1
Step 519000
Ar 1.046112e+00 0.000000e+00 0.000000e+00
1
Step 520000
Ar 1.126384e+00 0.000000e+00 0.000000e+00
1
Step 521000
Ar 1.074343e+00 0.000000e+00 0.000000e+00
1
Step 522000
Ar 1.075560e+00 0.000000e+00 0.000000e+00
1
Step 523000
Ar 1.076780e+00 0.000000e+00 0.000000e+00
1
Step 524000
Ar 1.076511e+00 0.000000e+00 0.000000e+00
1
Step 525000
Ar 1.082901e+00 0.000000e+00 0.000000e+00
1
Step 526000
Ar 1.079818e+00 0.000000e+00 0.000000e+00
1
Step 527000
Ar 1.077849e+00 0.000000e+00 0.000000e+00
1
Step 528000
Ar 1.077591e+00 0.000000e+00 0.000000e+00
1
Step 529000
Ar 1.077192e+00 0.000000e+00 0.000000e+00
1
Step 530000
Ar 1.081731e+00 0.000000e+00 0.000000e+00
1
Step 531000
Ar 1.077588e+00 0.000000e+00 0.000000e+00
1
Step 532000
Ar 1.076521e+00 0.000000e+00 0.000000e+00
1
Step 533000
Ar 1.073102e+00 0.000000e+00 0.000000e+00
1
Step 534000
Ar 9.482364e-01 0.000000e+00 0.000000e+00
1
Step 535000
Ar 9.527520e-01 0.000000e+00 0.000000e+00
1
Step 536000
Ar 9.433881e-01 0.000000e+00 0.000000e+00
1
Step 537000
Ar 9.506160e-01 0.000000e+00 0.000000e+00
1
Step 538000
Ar 9.404233e-01 0.000000e+00 0.000000e+00
1
Step 539000
Ar 1.387703e+00 0.000000e+00 0.000000e+00
1
Step 540000
Ar 1.400382e+00 0.000000e+00 0.000000e+00
1
Step 541000
Ar 1.380478e+00 0.000000e+00 0.000000e+00
1
Step 542000
Ar 1.423029e+00 0.000000e+00 0.000000e+00
1
Step 543000
Ar 1.381444e+00 0.000000e+00 0.000000e+00
1
Step 544000
Ar 1.372639e+00 0.000000e+00 0.000000e+00
1
Step 545000
Ar 1.431222e+00 0.000000e+00 0.000000e+00
1
Step 546000
Ar 1.376154e+00 0.000000e+00 0.000000e+00
1
Step 547000
Ar 1.373611e+00 0.000000e+00 0.000000e+00
1
Step 548000
Ar 1.404621e+00 0.000000e+00 0.000000e+00
1
Step 549000
Ar 1.387373e+00 0.000000e+00 0.000000e+00
1
Step 550000
Ar 1.380601e+00 0.000000e+00 0.000000e+00
1
Step 551000
Ar 1.384921e+00 0.000000e+00 0.000000e+00
1
Step 552000
Ar 1.400635e+00 0.000000e+00 0.000000e+00
1
Step 553000
Ar 1.433526e+00 0.000000e+00 0.000000e+00
1
Step 554000
Ar 1.422743e+00 0.000000e+00 0.000000e+00
1
Step 555000
Ar 1.220460e+00 0.000000e+00 0.000000e+00
1
Step 556000
Ar 1.221500e+00 0.000000e+00 0.000000e+00
1
Step 557000
Ar 1.215900e+00 0.000000e+00 0.000000e+00
1
Step 558000
Ar 1.219846e+00 0.000000e+00 0.000000e+00
1
Step 559000
Ar 1.211536e+00 0.000000e+00 0.000000e+00
1
Step 560000
Ar 1.217038e+00 0.000000e+00 0.000000e+00
1
Step 561000
Ar 1.214877e+00 0.000000e+00 0.000000e+00
1
Step 562000
Ar 1.017095e+00 0.000000e+00 0.000000e+00
1
Step 563000
Ar 1.244953e+00 0.000000e+00 0.000000e+00
1
Step 564000
Ar 1.404024e+00 0.000000e+00 0.000000e+00
1
Step 565000
Ar 1.390585e+00 0.000000e+00 0.000000e+00
1
Step 566000
Ar 1.393491e+00 0.000000e+00 0.000000e+00
1
Step 567000
Ar 1.515464e+00 0.000000e+00 0.000000e+00
1
Step 568000
Ar 1.509004e+00 0.000000e+00 0.000000e+00
1
Step 569000
Ar 1.481462e+00 0.000000e+00 0.000000e+00
1
Step 570000
Ar -4.978658e-01 0.000000e+00 0.000000e+00
1
Step 571000
Ar -4.709948e-01 0.000000e+00 0.000000e+00
1
Step 572000
Ar -4.619450e-01 0.000000e+00 0.000000e+00
1
Step 573000
Ar -3.886402e-01 0.000000e+00 0.000000e+00
1
Step 574000
Ar -4.288842e-01 0.000000e+00 0.000000e+00
1
Step 575000
Ar -4.395369e-01 0.000000e+00 0.000000e+00
1
Step 576000
Ar -3.502359e-01 0.000000e+00 0.000000e+00
1
Step 577000
Ar -4.502252e-01 0.000000e+00 0.000000e+00
1
Step 578000
Ar -4.274268e-01 0.000000e+00 0.000000e+00
1
Step 579000
Ar -4.503524e-01 0.000000e+00 0.000000e+00
1
Step 580000
Ar -3.756982e-01 0.000000e+00 0.000000e+00
1
Step 581000
Ar -4.068685e-01 0.000000e+00 0.000000e+00
1
Step 582000
Ar -3.937061e-01 0.000000e+00 0.000000e+00
1
Step 583000
Ar -4.094250e-01 0.000000e+00 0.000000e+00
1
Step 584000
Ar -4.750778e-01 0.000000e+00 0.000000e+00
1
Step 585000
Ar -3.599703e-01 0.000000e+00 0.000000e+00
1
Step 586000
Ar -4.527552e-01 0.000000e+00 0.000000e+00
1
Step 587000
Ar -4.278242e-01 0.000000e+00 0.000000e+00
1
Step 588000
Ar -4.105780e-01 0.000000e+00 0.000000e+00
1
Step 589000
Ar -4.188088e-01 0.000000e+00 0.000000e+00
1
Step 590000
Ar -4.799111e-01 0.000000e+00 0.000000e+00
1
Step 591000
Ar -4.515428e-01 0.000000e+00 0.000000e+00
1
Step 592000
Ar -3.838906e-01 0.000000e+00 0.000000e+00
1
Step 593000
Ar -4.555952e-01 0.000000e+00 0.000000e+00
1
Step 594000
Ar -4.643039e-01 0.000000e+00 0.000000e+00
1
Step 595000
Ar -4.714562e-01 0.000000e+00 0.000000e+00
1
Step 596000
Ar -3.623611e-01 0.000000e+00 0.000000e+00
1
Step 597000
Ar -4.013403e-01 0.000000e+00 0.000000e+00
1
Step 598000
Ar -3.491142e-01 0.000000e+00 0.000000e+00
1
Step 599000
Ar -3.262214e-01 0.000000e+00 0.000000e+00
1
Step 600000
Ar -3.139767e-01 0.000000e+00 0.000000e+00
1
Step 601000
Ar -3.202626e-01 0.000000e+00 0.000000e+00
1
Step 602000
Ar -3.160433e-01 0.000000e+00 0.000000e+00
1
Step 603000
Ar -3.025239e-01 0.000000e+00 0.000000e+00
1
Step 604000
Ar -3.322008e-01 0.000000e+00 0.000000e+00
1
Step 605000
Ar -3.199149e-01 0.000000e+00 0.000000e+00
1
Step 606000
Ar -3.167033e-01 0.000000e+00 0.000000e+00
1
Step 607000
Ar -3.197686e-01 0.000000e+00 0.000000e+00
1
Step 608000
Ar -3.288999e-01 0.000000e+00 0.000000e+00
1
Step 609000
Ar -3.107066e-01 0.000000e+00 0.000000e+00
1
Step 610000
Ar -3.125540e-01 0.000000e+00 0.000000e+00
1
Step 611000
Ar -3.280345e-01 0.000000e+00 0.000000e+00
1
Step 612000
Ar -3.323006e-01 0.000000e+00 0.000000e+00
1
Step 613000
Ar -3.266354e-01 0.000000e+00 0.000000e+00
1
Step 614000
Ar 2.584827e-01 0.000000e+00 0.000000e+00
1
Step 615000
Ar 7.732970e-02 0.000000e+00 0.000000e+00
1
Step 616000
Ar -2.142032e-01 0.000000e+00 0.000000e+00
1
Step 617000
Ar -2.300678e-01 0.000000e+00 0.000000e+00
1
Step 618000
Ar 3.711400e-01 0.000000e+00 0.000000e+00
1
Step 619000
Ar 1.457332e-01 0.000000e+00 0.000000e+00
1
Step 620000
Ar -2.651598e-01 0.000000e+00 0.000000e+00
1
Step 621000
Ar 2.927333e-01 0.000000e+00 0.000000e+00
1
Step 622000
Ar 3.600516e-01 0.000000e+00 0.000000e+00
1
Step 623000
Ar 3.590594e-01 0.000000e+00 0.000000e+00
1
Step 624000
Ar 3.257699e-01 0.000000e+00 0.000000e+00
1
Step 625000
Ar 2.535566e-01 0.000000e+00 0.000000e+00
1
Step 626000
Ar 3.306791e-01 0.000000e+00 0.000000e+00
1
Step 627000
Ar 1.959794e-01 0.000000e+00 0.000000e+00
1
Step 628000
Ar 3.500722e-01 0.000000e+00 0.000000e+00
1
Step 629000
Ar -2.263104e-01 0.000000e+00 0.000000e+00
1
Step 630000
Ar 2.817035e-01 0.000000e+00 0.000000e+00
1
Step 631000
Ar 3.016351e-01 0.000000e+00 0.000000e+00
1
Step 632000
Ar 3.040930e-01 0.000000e+00 0.000000e+00
1
Step 633000
Ar 5.954033e-01 0.000000e+00 0.000000e+00
1
Step 634000
Ar 6.259782e-01 0.000000e+00 0.000000e+00
1
Step 635000
Ar 6.455183e-01 0.000000e+00 0.000000e+00
1
Step 636000
Ar 6.312360e-01 0.000000e+00 0.000000e+00
1
Step 637000
Ar 6.504109e-01 0.000000e+00 0.000000e+00
1
Step 638000
Ar 6.407094e-01 0.000000e+00 0.000000e+00
1
Step 639000
Ar 6.482904e-01 0.000000e+00 0.000000e+00
1
Step 640000
Ar 6.488552e-01 0.000000e+00 0.000000e+00
1
Step 641000
Ar 6.516546e-01 0.000000e+00 0.000000e+00
1
Step 642000
Ar 6.454919e-01 0.000000e+00 0.000000e+00
1
Step 643000
Ar 6.315798e-01 0.000000e+00 0.000000e+00
1
Step 644000
Ar 6.335671e-01 0.000000e+00 0.000000e+00
1
Step 645000
Ar 6.343016e-01 0.000000e+00 0.000000e+00
1
Step 646000
Ar 6.345628e-01 0.000000e+00 0.000000e+00
1
Step 647000
Ar 6.425419e-01 0.000000e+00 0.000000e+00
1
Step 648000
Ar 6.379764e-01 0.000000e+00 0.000000e+00
1
Step 649000
Ar 6.459861e-01 0.000000e+00 0.000000e+00
1
Step 650000