1
Step 0
Ar 4.993588e+00 0.000000e+00 0.000000e+00
1
Step 1000
Ar 4.543618e+00 0.000000e+00 0.000000e+00
1
Step 2000
Ar 3.445642e+00 0.000000e+00 0.000000e+00
1
Step 3000
Ar 1.856253e+00 0.000000e+00 0.000000e+00
1
Step 4000
Ar 2.127957e-03 0.000000e+00 0.000000e+00
1
Step 5000
Ar -1.852301e+00 0.000000e+00 0.000000e+00
1
Step 6000
Ar -3.442557e+00 0.000000e+00 0.000000e+00
1
Step 7000
Ar -4.541840e+00 0.000000e+00 0.000000e+00
1
Step 8000
Ar -4.993370e+00 0.000000e+00 0.000000e+00
1
Step 9000
Ar -4.732753e+00 0.000000e+00 0.000000e+00
1
Step 10000
Ar -3.797155e+00 0.000000e+00 0.000000e+00
1
Step 11000
Ar -2.320012e+00 0.000000e+00 0.000000e+00
1
Step 12000
Ar -5.119919e-01 0.000000e+00 0.000000e+00
1
Step 13000
Ar 1.369048e+00 0.000000e+00 0.000000e+00
1
Step 14000
Ar 3.054836e+00 0.000000e+00 0.000000e+00
1
Step 15000
Ar 4.304947e+00 0.000000e+00 0.000000e+00
1
Step 16000
Ar 4.941092e+00 0.000000e+00 0.000000e+00
1
Step 17000
Ar 4.872544e+00 0.000000e+00 0.000000e+00
1
Step 18000
Ar 4.109079e+00 0.000000e+00 0.000000e+00
1
Step 19000
Ar 2.759583e+00 0.000000e+00 0.000000e+00
1
Step 20000
Ar 1.016518e+00 0.000000e+00 0.000000e+00
1
Step 21000
Ar -8.715217e-01 0.000000e+00 0.000000e+00
1
Step 22000
Ar -2.635266e+00 0.000000e+00 0.000000e+00
1
Step 23000
Ar -4.023171e+00 0.000000e+00 0.000000e+00
1
Step 24000
Ar -4.837297e+00 0.000000e+00 0.000000e+00
1
Step 25000
Ar -4.961533e+00 0.000000e+00 0.000000e+00
1
Step 26000
Ar -4.378161e+00 0.000000e+00 0.000000e+00
1
Step 27000
Ar -3.170381e+00 0.000000e+00 0.000000e+00
1
Step 28000
Ar -1.510445e+00 0.000000e+00 0.000000e+00
1
Step 29000
Ar 3.649086e-01 0.000000e+00 0.000000e+00
1
Step 30000
Ar 2.188220e+00 0.000000e+00 0.000000e+00
1
Step 31000
Ar 3.699449e+00 0.000000e+00 0.000000e+00
1
Step 32000
Ar 4.683068e+00 0.000000e+00 0.000000e+00
1
Step 33000
Ar 4.998793e+00 0.000000e+00 0.000000e+00
1
Step 34000
Ar 4.601596e+00 0.000000e+00 0.000000e+00
1
Step 35000
Ar 3.548125e+00 0.000000e+00 0.000000e+00
1
Step 36000
Ar 1.988625e+00 0.000000e+00 0.000000e+00
1
Step 37000
Ar 1.455091e-01 0.000000e+00 0.000000e+00
1
Step 38000
Ar -1.718359e+00 0.000000e+00 0.000000e+00
1
Step 39000
Ar -3.337157e+00 0.000000e+00 0.000000e+00
1
Step 40000
Ar -4.480013e+00 0.000000e+00 0.000000e+00
1
Step 41000
Ar -4.983936e+00 0.000000e+00 0.000000e+00
1
Step 42000
Ar -4.777055e+00 0.000000e+00 0.000000e+00
1
Step 43000
Ar -3.888876e+00 0.000000e+00 0.000000e+00
1
Step 44000
Ar -2.446071e+00 0.000000e+00 0.000000e+00
1
Step 45000
Ar -6.544097e-01 0.000000e+00 0.000000e+00
1
Step 46000
Ar 1.230583e+00 0.000000e+00 0.000000e+00
1
Step 47000
Ar 2.940071e+00 0.000000e+00 0.000000e+00
1
Step 48000
Ar 4.230250e+00 0.000000e+00 0.000000e+00
1
Step 49000
Ar 4.917115e+00 0.000000e+00 0.000000e+00
1
Step 50000
Ar 4.902708e+00 0.000000e+00 0.000000e+00
1
Step 51000
Ar 4.189082e+00 0.000000e+00 0.000000e+00
1
Step 52000
Ar 2.878014e+00 0.000000e+00 0.000000e+00
1
Step 53000
Ar 1.156487e+00 0.000000e+00 0.000000e+00
1
Step 54000
Ar -7.299762e-01 0.000000e+00 0.000000e+00
1
Step 55000
Ar -2.512331e+00 0.000000e+00 0.000000e+00
1
Step 56000
Ar -3.936381e+00 0.000000e+00 0.000000e+00
1
Step 57000
Ar -4.799028e+00 0.000000e+00 0.000000e+00
1
Step 58000
Ar -4.977244e+00 0.000000e+00 0.000000e+00
1
Step 59000
Ar -4.445611e+00 0.000000e+00 0.000000e+00
1
Step 60000
Ar -3.279951e+00 0.000000e+00 0.000000e+00
1
Step 61000
Ar -1.646507e+00 0.000000e+00 0.000000e+00
1
Step 62000
Ar 2.217588e-01 0.000000e+00 0.000000e+00
1
Step 63000
Ar 2.058398e+00 0.000000e+00 0.000000e+00
1
Step 64000
Ar 3.601471e+00 0.000000e+00 0.000000e+00
1
Step 65000
Ar 4.630906e+00 0.000000e+00 0.000000e+00
1
Step 66000
Ar 4.999887e+00 0.000000e+00 0.000000e+00
1
Step 67000
Ar 4.655790e+00 0.000000e+00 0.000000e+00
1
Step 68000
Ar 3.647690e+00 0.000000e+00 0.000000e+00
1
Step 69000
Ar 2.119361e+00 0.000000e+00 0.000000e+00
1
Step 70000
Ar 2.887705e-01 0.000000e+00 0.000000e+00
1
Step 71000
Ar -1.583004e+00 0.000000e+00 0.000000e+00
1
Step 72000
Ar -3.229012e+00 0.000000e+00 0.000000e+00
1
Step 73000
Ar -4.414502e+00 0.000000e+00 0.000000e+00
1
Step 74000
Ar -4.970402e+00 0.000000e+00 0.000000e+00
1
Step 75000
Ar -4.817428e+00 0.000000e+00 0.000000e+00
1
Step 76000
Ar -3.977399e+00 0.000000e+00 0.000000e+00
1
Step 77000
Ar -2.570118e+00 0.000000e+00 0.000000e+00
1
Step 78000
Ar -7.962892e-01 0.000000e+00 0.000000e+00
1
Step 79000
Ar 1.091105e+00 0.000000e+00 0.000000e+00
1
Step 80000
Ar 2.822887e+00 0.000000e+00 0.000000e+00
1
Step 81000
Ar 4.152072e+00 0.000000e+00 0.000000e+00
1
Step 82000
Ar 4.889094e+00 0.000000e+00 0.000000e+00
1
Step 83000
Ar 4.928839e+00 0.000000e+00 0.000000e+00
1
Step 84000
Ar 4.265639e+00 0.000000e+00 0.000000e+00
1
Step 85000
Ar 2.994078e+00 0.000000e+00 0.000000e+00
1
Step 86000
Ar 1.295506e+00 0.000000e+00 0.000000e+00
1
Step 87000
Ar -5.878302e-01 0.000000e+00 0.000000e+00
1
Step 88000
Ar -2.387330e+00 0.000000e+00 0.000000e+00
1
Step 89000
Ar -3.846352e+00 0.000000e+00 0.000000e+00
1
Step 90000
Ar -4.756812e+00 0.000000e+00 0.000000e+00
1
Step 91000
Ar -4.988861e+00 0.000000e+00 0.000000e+00
1
Step 92000
Ar -4.509405e+00 0.000000e+00 0.000000e+00
1
Step 93000
Ar -3.386822e+00 0.000000e+00 0.000000e+00
1
Step 94000
Ar -1.781215e+00 0.000000e+00 0.000000e+00
1
Step 95000
Ar 7.842672e-02 0.000000e+00 0.000000e+00
1
Step 96000
Ar 1.926883e+00 0.000000e+00 0.000000e+00
1
Step 97000
Ar 3.500530e+00 0.000000e+00 0.000000e+00
1
Step 98000
Ar 4.574936e+00 0.000000e+00 0.000000e+00
1
Step 99000
Ar 4.996869e+00 0.000000e+00 0.000000e+00
