1
Step 120000
Ar 8.864891e-01 0.000000e+00 0.000000e+00
1
Step 121000
Ar 1.099192e+00 0.000000e+00 0.000000e+00
1
Step 122000
Ar 9.269497e-01 0.000000e+00 0.000000e+00
1
Step 123000
Ar 9.665866e-01 0.000000e+00 0.000000e+00
1
Step 124000
Ar 9.432858e-01 0.000000e+00 0.000000e+00
1
Step 125000
Ar 1.037278e+00 0.000000e+00 0.000000e+00
1
Step 126000
Ar 1.089816e+00 0.000000e+00 0.000000e+00
1
Step 127000
Ar 1.105660e+00 0.000000e+00 0.000000e+00
1
Step 128000
Ar 1.140113e+00 0.000000e+00 0.000000e+00
1
Step 129000
Ar 1.126740e+00 0.000000e+00 0.000000e+00
1
Step 130000
Ar 9.150400e-01 0.000000e+00 0.000000e+00
1
Step 131000
Ar 8.290753e-01 0.000000e+00 0.000000e+00
1
Step 132000
Ar 7.956629e-01 0.000000e+00 0.000000e+00
1
Step 133000
Ar 8.761492e-01 0.000000e+00 0.000000e+00
1
Step 134000
Ar 9.001342e-01 0.000000e+00 0.000000e+00
1
Step 135000
Ar 8.708637e-01 0.000000e+00 0.000000e+00
1
Step 136000
Ar 8.463490e-01 0.000000e+00 0.000000e+00
1
Step 137000
Ar 8.305175e-01 0.000000e+00 0.000000e+00
1
Step 138000
Ar 8.232184e-01 0.000000e+00 0.000000e+00
1
Step 139000
Ar 7.284828e-01 0.000000e+00 0.000000e+00
1
Step 140000
Ar 8.464945e-01 0.000000e+00 0.000000e+00
1
Step 141000
Ar 9.850797e-01 0.000000e+00 0.000000e+00
1
Step 142000
Ar 9.555925e-01 0.000000e+00 0.000000e+00
1
Step 143000
Ar 7.994640e-01 0.000000e+00 0.000000e+00
1
Step 144000
Ar 7.494761e-01 0.000000e+00 0.000000e+00
1
Step 145000
Ar 8.107912e-01 0.000000e+00 0.000000e+00
1
Step 146000
Ar 7.664524e-01 0.000000e+00 0.000000e+00
1
Step 147000
Ar 7.489191e-01 0.000000e+00 0.000000e+00
1
Step 148000
Ar 7.726834e-01 0.000000e+00 0.000000e+00
1
Step 149000
Ar 7.126499e-01 0.000000e+00 0.000000e+00
1
Step 150000
Ar 9.546421e-01 0.000000e+00 0.000000e+00
1
Step 151000
Ar 1.018774e+00 0.000000e+00 0.000000e+00
1
Step 152000
Ar 9.795511e-01 0.000000e+00 0.000000e+00
1
Step 153000
Ar 1.016220e+00 0.000000e+00 0.000000e+00
1
Step 154000
Ar 1.140261e+00 0.000000e+00 0.000000e+00
1
Step 155000
Ar 9.680637e-01 0.000000e+00 0.000000e+00
1
Step 156000
Ar 9.893426e-01 0.000000e+00 0.000000e+00
1
Step 157000
Ar 9.293327e-01 0.000000e+00 0.000000e+00
1
Step 158000
Ar 9.385687e-01 0.000000e+00 0.000000e+00
1
Step 159000
Ar 9.399312e-01 0.000000e+00 0.000000e+00
1
Step 160000
Ar 9.311720e-01 0.000000e+00 0.000000e+00
1
Step 161000
Ar 9.437102e-01 0.000000e+00 0.000000e+00
1
Step 162000
Ar 9.431598e-01 0.000000e+00 0.000000e+00
1
Step 163000
Ar 8.989000e-01 0.000000e+00 0.000000e+00
1
Step 164000
Ar 1.061916e+00 0.000000e+00 0.000000e+00
1
Step 165000
Ar 1.224313e+00 0.000000e+00 0.000000e+00
1
Step 166000
Ar 1.110029e+00 0.000000e+00 0.000000e+00
1
Step 167000
Ar 1.135345e+00 0.000000e+00 0.000000e+00
1
Step 168000
Ar 1.006494e+00 0.000000e+00 0.000000e+00
1
Step 169000
Ar 1.009792e+00 0.000000e+00 0.000000e+00
1
Step 170000
Ar 9.834060e-01 0.000000e+00 0.000000e+00
1
Step 171000
Ar 1.022487e+00 0.000000e+00 0.000000e+00
1
Step 172000
Ar 1.116508e+00 0.000000e+00 0.000000e+00
1
Step 173000
Ar 1.176464e+00 0.000000e+00 0.000000e+00
1
Step 174000
Ar 1.053717e+00 0.000000e+00 0.000000e+00
1
Step 175000
Ar 1.065324e+00 0.000000e+00 0.000000e+00
1
Step 176000
Ar 9.474176e-01 0.000000e+00 0.000000e+00
1
Step 177000
Ar 9.375719e-01 0.000000e+00 0.000000e+00
1
Step 178000
Ar 9.403967e-01 0.000000e+00 0.000000e+00
1
Step 179000
Ar 8.953904e-01 0.000000e+00 0.000000e+00
1
Step 180000
Ar 8.855057e-01 0.000000e+00 0.000000e+00
1
Step 181000
Ar 9.449296e-01 0.000000e+00 0.000000e+00
1
Step 182000
Ar 9.332832e-01 0.000000e+00 0.000000e+00
1
Step 183000
Ar 1.108088e+00 0.000000e+00 0.000000e+00
1
Step 184000
Ar 1.184488e+00 0.000000e+00 0.000000e+00
1
Step 185000
Ar 1.207711e+00 0.000000e+00 0.000000e+00
1
Step 186000
Ar 1.196224e+00 0.000000e+00 0.000000e+00
1
Step 187000
Ar 1.162834e+00 0.000000e+00 0.000000e+00
1
Step 188000
Ar 1.073853e+00 0.000000e+00 0.000000e+00
1
Step 189000
Ar 1.117155e+00 0.000000e+00 0.000000e+00
1
Step 190000
Ar 1.144430e+00 0.000000e+00 0.000000e+00
1
Step 191000
Ar 1.003571e+00 0.000000e+00 0.000000e+00
1
Step 192000
Ar 1.083644e+00 0.000000e+00 0.000000e+00
1
Step 193000
Ar 1.112250e+00 0.000000e+00 0.000000e+00
1
Step 194000
Ar 1.101829e+00 0.000000e+00 0.000000e+00
1
Step 195000
Ar 1.118015e+00 0.000000e+00 0.000000e+00
1
Step 196000
Ar 1.025182e+00 0.000000e+00 0.000000e+00
1
Step 197000
Ar 9.923655e-01 0.000000e+00 0.000000e+00
1
Step 198000
Ar 1.017365e+00 0.000000e+00 0.000000e+00
1
Step 199000
Ar 1.015968e+00 0.000000e+00 0.000000e+00
1
Step 200000
Ar 9.743188e-01 0.000000e+00 0.000000e+00
1
Step 201000
Ar 1.092892e+00 0.000000e+00 0.000000e+00
1
Step 202000
Ar 1.091868e+00 0.000000e+00 0.000000e+00
1
Step 203000
Ar 1.104078e+00 0.000000e+00 0.000000e+00
1
Step 204000
Ar 1.095854e+00 0.000000e+00 0.000000e+00
1
Step 205000
Ar 1.097038e+00 0.000000e+00 0.000000e+00
1
Step 206000
Ar 1.109860e+00 0.000000e+00 0.000000e+00
1
Step 207000
Ar 9.952806e-01 0.000000e+00 0.000000e+00
1
Step 208000
Ar 1.010212e+00 0.000000e+00 0.000000e+00
1
Step 209000
Ar 1.016305e+00 0.000000e+00 0.000000e+00
1
Step 210000
Ar 1.014352e+00 0.000000e+00 0.000000e+00
1
Step 211000
Ar 1.043228e+00 0.000000e+00 0.000000e+00
1
Step 212000
Ar 1.047638e+00 0.000000e+00 0.000000e+00
1
Step 213000
Ar 1.049637e+00 0.000000e+00 0.000000e+00
1
Step 214000
Ar 1.049090e+00 0.000000e+00 0.000000e+00
1
Step 215000
Ar 1.052078e+00 0.000000e+00 0.000000e+00
1
Step 216000
Ar 1.077051e+00 0.000000e+00 0.000000e+00
1
Step 217000
Ar 1.087787e+00 0.000000e+00 0.000000e+00
1
Step 218000
Ar 1.077867e+00 0.000000e+00 0.000000e+00
1
Step 219000
Ar 1.081757e+00 0.000000e+00 0.000000e+00
1
Step 220000
Ar 1.089619e+00 0.000000e+00 0.000000e+00
1
Step 221000
Ar 1.124803e+00 0.000000e+00 0.000000e+00
1
Step 222000
Ar 1.289684e+00 0.000000e+00 0.000000e+00
1
Step 223000
Ar 1.233490e+00 0.000000e+00 0.000000e+00
1
Step 224000
Ar 1.161637e+00 0.000000e+00 0.000000e+00
1
Step 225000
Ar 1.169364e+00 0.000000e+00 0.000000e+00
1
Step 226000
Ar 1.157493e+00 0.000000e+00 0.000000e+00
1
Step 227000
Ar 1.153200e+00 0.000000e+00 0.000000e+00
1
Step 228000
Ar 1.152299e+00 0.000000e+00 0.000000e+00
1
Step 229000
Ar 1.152838e+00 0.000000e+00 0.000000e+00
1
Step 230000
Ar 1.130813e+00 0.000000e+00 0.000000e+00
1
Step 231000
Ar 1.024653e+00 0.000000e+00 0.000000e+00
1
Step 232000
Ar 1.080334e+00 0.000000e+00 0.000000e+00
1
Step 233000
Ar 1.077375e+00 0.000000e+00 0.000000e+00
1
Step 234000
Ar 1.076862e+00 0.000000e+00 0.000000e+00
1
Step 235000
Ar 1.081879e+00 0.000000e+00 0.000000e+00
1
Step 236000
Ar 1.028476e+00 0.000000e+00 0.000000e+00
1
Step 237000
Ar 1.035316e+00 0.000000e+00 0.000000e+00
1
Step 238000
Ar 1.001299e+00 0.000000e+00 0.000000e+00
1
Step 239000
Ar 9.997378e-01 0.000000e+00 0.000000e+00
1
Step 240000
Ar 9.942261e-01 0.000000e+00 0.000000e+00
1
Step 241000
Ar 1.028061e+00 0.000000e+00 0.000000e+00
1
Step 242000
Ar 1.023980e+00 0.000000e+00 0.000000e+00
1
Step 243000
Ar 9.999416e-01 0.000000e+00 0.000000e+00
1
Step 244000
Ar 1.025683e+00 0.000000e+00 0.000000e+00
1
Step 245000
Ar 1.027844e+00 0.000000e+00 0.000000e+00
1
Step 246000
Ar 1.003389e+00 0.000000e+00 0.000000e+00
1
Step 247000
Ar 1.004091e+00 0.000000e+00 0.000000e+00
1
Step 248000
Ar 1.006792e+00 0.000000e+00 0.000000e+00
1
Step 249000
Ar 1.005708e+00 0.000000e+00 0.000000e+00
1
Step 250000
Ar 1.002131e+00 0.000000e+00 0.000000e+00
1
Step 251000
Ar 1.073546e+00 0.000000e+00 0.000000e+00
1
Step 252000
Ar 1.071113e+00 0.000000e+00 0.000000e+00
1
Step 253000
Ar 1.009315e+00 0.000000e+00 0.000000e+00
1
Step 254000
Ar 1.045891e+00 0.000000e+00 0.000000e+00
1
Step 255000
Ar 1.048143e+00 0.000000e+00 0.000000e+00
1
Step 256000
Ar 7.596067e-01 0.000000e+00 0.000000e+00
1
Step 257000
Ar 7.689829e-01 0.000000e+00 0.000000e+00
1
Step 258000
Ar 7.987956e-01 0.000000e+00 0.000000e+00
1
Step 259000
Ar 7.895486e-01 0.000000e+00 0.000000e+00
1
Step 260000
Ar 7.882789e-01 0.000000e+00 0.000000e+00
1
Step 261000
Ar 8.572547e-01 0.000000e+00 0.000000e+00
1
Step 262000
Ar 8.586745e-01 0.000000e+00 0.000000e+00
1
Step 263000
Ar 8.622112e-01 0.000000e+00 0.000000e+00
1
Step 264000
Ar 8.367403e-01 0.000000e+00 0.000000e+00
1
Step 265000
Ar 8.266344e-01 0.000000e+00 0.000000e+00
1
Step 266000
Ar 8.633072e-01 0.000000e+00 0.000000e+00
1
Step 267000
Ar 8.565213e-01 0.000000e+00 0.000000e+00
1
Step 268000
Ar 8.794101e-01 0.000000e+00 0.000000e+00
1
Step 269000
Ar 7.312747e-01 0.000000e+00 0.000000e+00
1
Step 270000
Ar 7.652050e-01 0.000000e+00 0.000000e+00
1
Step 271000
Ar 6.305937e-01 0.000000e+00 0.000000e+00
1
Step 272000
Ar 6.505798e-01 0.000000e+00 0.000000e+00
1
Step 273000
Ar 6.424630e-01 0.000000e+00 0.000000e+00
1
Step 274000
Ar 6.384539e-01 0.000000e+00 0.000000e+00
1
Step 275000
Ar 6.898094e-01 0.000000e+00 0.000000e+00
1
Step 276000
Ar 7.361834e-01 0.000000e+00 0.000000e+00
1
Step 277000
Ar 7.987966e-01 0.000000e+00 0.000000e+00
1
Step 278000
Ar 5.830754e-01 0.000000e+00 0.000000e+00
1
Step 279000
Ar 7.382440e-01 0.000000e+00 0.000000e+00
1
Step 280000
Ar 7.425900e-01 0.000000e+00 0.000000e+00
1
Step 281000
Ar 8.983835e-01 0.000000e+00 0.000000e+00
1
Step 282000
Ar 9.006232e-01 0.000000e+00 0.000000e+00
1
Step 283000
Ar 8.997310e-01 0.000000e+00 0.000000e+00
1
Step 284000
Ar 9.037730e-01 0.000000e+00 0.000000e+00
1
Step 285000
Ar 9.465207e-01 0.000000e+00 0.000000e+00
1
Step 286000
Ar 9.071788e-01 0.000000e+00 0.000000e+00
1
Step 287000
Ar 8.985027e-01 0.000000e+00 0.000000e+00
1
Step 288000
Ar 8.965455e-01 0.000000e+00 0.000000e+00
1
Step 289000
Ar 8.976850e-01 0.000000e+00 0.000000e+00
1
Step 290000
Ar 9.042638e-01 0.000000e+00 0.000000e+00
1
Step 291000
Ar 8.582854e-01 0.000000e+00 0.000000e+00
1
Step 292000
Ar 8.564511e-01 0.000000e+00 0.000000e+00
1
Step 293000
Ar 7.229929e-01 0.000000e+00 0.000000e+00
1
Step 294000
Ar 7.221295e-01 0.000000e+00 0.000000e+00
1
Step 295000
Ar 7.184873e-01 0.000000e+00 0.000000e+00
1
Step 296000
Ar 5.995255e-01 0.000000e+00 0.000000e+00
1
Step 297000
Ar 6.622814e-01 0.000000e+00 0.000000e+00
1
Step 298000
Ar 6.004222e-01 0.000000e+00 0.000000e+00
1
Step 299000
Ar 6.995417e-01 0.000000e+00 0.000000e+00
1
Step 300000
Ar 7.074043e-01 0.000000e+00 0.000000e+00
1
Step 301000
Ar 6.396565e-01 0.000000e+00 0.000000e+00
1
Step 302000
Ar 6.237833e-01 0.000000e+00 0.000000e+00
1
Step 303000
Ar 6.146402e-01 0.000000e+00 0.000000e+00
1
Step 304000
Ar 5.980826e-01 0.000000e+00 0.000000e+00
1
Step 305000
Ar 5.527713e-01 0.000000e+00 0.000000e+00
1
Step 306000
Ar 8.916654e-01 0.000000e+00 0.000000e+00
1
Step 307000
Ar 8.568956e-01 0.000000e+00 0.000000e+00
1
Step 308000
Ar 8.570830e-01 0.000000e+00 0.000000e+00
1
Step 309000
Ar 8.598356e-01 0.000000e+00 0.000000e+00
1
Step 310000
Ar 8.608048e-01 0.000000e+00 0.000000e+00
1
Step 311000
Ar 7.539382e-01 0.000000e+00 0.000000e+00
1
Step 312000
Ar 7.555184e-01 0.000000e+00 0.000000e+00
1
Step 313000
Ar 7.541556e-01 0.000000e+00 0.000000e+00
1
Step 314000
Ar 7.762813e-01 0.000000e+00 0.000000e+00
1
Step 315000
Ar 8.335668e-01 0.000000e+00 0.000000e+00
1
Step 316000
Ar 7.953283e-01 0.000000e+00 0.000000e+00
1
Step 317000
Ar 6.660412e-01 0.000000e+00 0.000000e+00
1
Step 318000
Ar 6.692671e-01 0.000000e+00 0.000000e+00
1
Step 319000
Ar 6.728004e-01 0.000000e+00 0.000000e+00
1
Step 320000
Ar 6.557415e-01 0.000000e+00 0.000000e+00
1
Step 321000
Ar 6.739954e-01 0.000000e+00 0.000000e+00
1
Step 322000
Ar 6.791646e-01 0.000000e+00 0.000000e+00
1
Step 323000
Ar 6.769750e-01 0.000000e+00 0.000000e+00
1
Step 324000
Ar 6.828550e-01 0.000000e+00 0.000000e+00
1
Step 325000
Ar 6.778893e-01 0.000000e+00 0.000000e+00
1
Step 326000
Ar 6.653392e-01 0.000000e+00 0.000000e+00
1
Step 327000
Ar 6.693016e-01 0.000000e+00 0.000000e+00
1
Step 328000
Ar 6.622901e-01 0.000000e+00 0.000000e+00
1
Step 329000
Ar 6.634496e-01 0.000000e+00 0.000000e+00
1
Step 330000
Ar 6.700447e-01 0.000000e+00 0.000000e+00
1
Step 331000
Ar 5.787997e-01 0.000000e+00 0.000000e+00
1
Step 332000
Ar 6.079370e-01 0.000000e+00 0.000000e+00
1
Step 333000
Ar 6.155394e-01 0.000000e+00 0.000000e+00
1
Step 334000
Ar 6.299806e-01 0.000000e+00 0.000000e+00
1
Step 335000
Ar 6.229723e-01 0.000000e+00 0.000000e+00
1
Step 336000
Ar 6.139525e-01 0.000000e+00 0.000000e+00
1
Step 337000
Ar 6.327723e-01 0.000000e+00 0.000000e+00
1
Step 338000
Ar 6.362300e-01 0.000000e+00 0.000000e+00
1
Step 339000
Ar 6.400984e-01 0.000000e+00 0.000000e+00
1
Step 340000
Ar 6.389378e-01 0.000000e+00 0.000000e+00
1
Step 341000
Ar 5.962246e-01 0.000000e+00 0.000000e+00
1
Step 342000
Ar 6.100475e-01 0.000000e+00 0.000000e+00
1
Step 343000
Ar 5.987420e-01 0.000000e+00 0.000000e+00
1
Step 344000
Ar 4.934575e-01 0.000000e+00 0.000000e+00
1
Step 345000
Ar 5.428937e-01 0.000000e+00 0.000000e+00
1
Step 346000
Ar 4.864642e-01 0.000000e+00 0.000000e+00
1
Step 347000
Ar 2.524996e-01 0.000000e+00 0.000000e+00
1
Step 348000
Ar 4.333498e-01 0.000000e+00 0.000000e+00
1
Step 349000
Ar 5.170816e-01 0.000000e+00 0.000000e+00
1
Step 350000
Ar 1.798385e-01 0.000000e+00 0.000000e+00
1
Step 351000
Ar -9.816441e-01 0.000000e+00 0.000000e+00
1
Step 352000
Ar -1.207806e+00 0.000000e+00 0.000000e+00
1
Step 353000
Ar -9.050474e-01 0.000000e+00 0.000000e+00
1
Step 354000
Ar -8.493403e-01 0.000000e+00 0.000000e+00
1
Step 355000
Ar -1.050266e+00 0.000000e+00 0.000000e+00
1
Step 356000
Ar -1.133781e+00 0.000000e+00 0.000000e+00
1
Step 357000
Ar -1.101944e+00 0.000000e+00 0.000000e+00
1
Step 358000
Ar -1.148811e+00 0.000000e+00 0.000000e+00
1
Step 359000
Ar -1.113849e+00 0.000000e+00 0.000000e+00
1
Step 360000
Ar -1.025942e+00 0.000000e+00 0.000000e+00
1
Step 361000
Ar -1.002774e+00 0.000000e+00 0.000000e+00
1
Step 362000
Ar -8.796450e-01 0.000000e+00 0.000000e+00
1
Step 363000
Ar -6.779293e-01 0.000000e+00 0.000000e+00
1
Step 364000
Ar -9.498320e-01 0.000000e+00 0.000000e+00
1
Step 365000
Ar -9.801968e-01 0.000000e+00 0.000000e+00
1
Step 366000
Ar -8.441696e-01 0.000000e+00 0.000000e+00
1
Step 367000
Ar -7.786472e-01 0.000000e+00 0.000000e+00
1
Step 368000
Ar -8.598126e-01 0.000000e+00 0.000000e+00
1
Step 369000
Ar -8.608268e-01 0.000000e+00 0.000000e+00
1
Step 370000
Ar -9.649111e-01 0.000000e+00 0.000000e+00
1
Step 371000
Ar -9.331055e-01 0.000000e+00 0.000000e+00
1
Step 372000
Ar -8.473538e-01 0.000000e+00 0.000000e+00
1
Step 373000
Ar -8.779414e-01 0.000000e+00 0.000000e+00
1
Step 374000
Ar -9.155875e-01 0.000000e+00 0.000000e+00
1
Step 375000
Ar -8.288741e-01 0.000000e+00 0.000000e+00
1
Step 376000
Ar -6.407609e-01 0.000000e+00 0.000000e+00
1
Step 377000
Ar -8.145036e-01 0.000000e+00 0.000000e+00
1
Step 378000
Ar -9.332862e-01 0.000000e+00 0.000000e+00
1
Step 379000
Ar -9.486583e-01 0.000000e+00 0.000000e+00
1
Step 380000
Ar -1.200355e+00 0.000000e+00 0.000000e+00
1
Step 381000
Ar -1.138212e+00 0.000000e+00 0.000000e+00
1
Step 382000
Ar -1.185230e+00 0.000000e+00 0.000000e+00
1
Step 383000
Ar -1.074572e+00 0.000000e+00 0.000000e+00
1
Step 384000
Ar -1.156751e+00 0.000000e+00 0.000000e+00
1
Step 385000
Ar -1.072832e+00 0.000000e+00 0.000000e+00
1
Step 386000
Ar -1.088408e+00 0.000000e+00 0.000000e+00
1
Step 387000
Ar -1.146290e+00 0.000000e+00 0.000000e+00
1
Step 388000
Ar -1.131927e+00 0.000000e+00 0.000000e+00
1
Step 389000
Ar -1.174107e+00 0.000000e+00 0.000000e+00
1
Step 390000
Ar -1.165767e+00 0.000000e+00 0.000000e+00
1
Step 391000
Ar -9.400112e-01 0.000000e+00 0.000000e+00
1
Step 392000
Ar -9.287265e-01 0.000000e+00 0.000000e+00
1
Step 393000
Ar -8.844477e-01 0.000000e+00 0.000000e+00
1
Step 394000
Ar -9.118621e-01 0.000000e+00 0.000000e+00
1
Step 395000
Ar -8.982735e-01 0.000000e+00 0.000000e+00
1
Step 396000
Ar -8.527168e-01 0.000000e+00 0.000000e+00
1
Step 397000
Ar -8.475496e-01 0.000000e+00 0.000000e+00
1
Step 398000
Ar -8.662720e-01 0.000000e+00 0.000000e+00
1
Step 399000
Ar -8.602556e-01 0.000000e+00 0.000000e+00
1
Step 400000
Ar -7.889804e-01 0.000000e+00 0.000000e+00
1
Step 401000
Ar -7.218955e-01 0.000000e+00 0.000000e+00
1
Step 402000
Ar -7.336129e-01 0.000000e+00 0.000000e+00
1
Step 403000
Ar -7.656807e-01 0.000000e+00 0.000000e+00
1
Step 404000
Ar -7.341926e-01 0.000000e+00 0.000000e+00
1
Step 405000
Ar -7.586295e-01 0.000000e+00 0.000000e+00
1
Step 406000
Ar -6.226716e-01 0.000000e+00 0.000000e+00
1
Step 407000
Ar -7.078573e-01 0.000000e+00 0.000000e+00
1
Step 408000
Ar -7.124986e-01 0.000000e+00 0.000000e+00
1
Step 409000
Ar -7.113077e-01 0.000000e+00 0.000000e+00
1
Step 410000
Ar -6.444813e-01 0.000000e+00 0.000000e+00
1
Step 411000
Ar -7.303819e-01 0.000000e+00 0.000000e+00
1
Step 412000
Ar -7.707289e-01 0.000000e+00 0.000000e+00
1
Step 413000
Ar -7.791371e-01 0.000000e+00 0.000000e+00
1
Step 414000
Ar -7.821126e-01 0.000000e+00 0.000000e+00
1
Step 415000
Ar -9.283685e-01 0.000000e+00 0.000000e+00
1
Step 416000
Ar -9.513468e-01 0.000000e+00 0.000000e+00
1
Step 417000
Ar -1.030913e+00 0.000000e+00 0.000000e+00
1
Step 418000
Ar -9.947067e-01 0.000000e+00 0.000000e+00
1
Step 419000
Ar -1.009415e+00 0.000000e+00 0.000000e+00
1
Step 420000
Ar -1.017023e+00 0.000000e+00 0.000000e+00
1
Step 421000
Ar -9.978052e-01 0.000000e+00 0.000000e+00
1
Step 422000
Ar -9.984210e-01 0.000000e+00 0.000000e+00
1
Step 423000
Ar -9.942475e-01 0.000000e+00 0.000000e+00
1
Step 424000
Ar -6.942821e-01 0.000000e+00 0.000000e+00
1
Step 425000
Ar -6.817376e-01 0.000000e+00 0.000000e+00
1
Step 426000
Ar -6.135477e-01 0.000000e+00 0.000000e+00
1
Step 427000
Ar -6.036473e-01 0.000000e+00 0.000000e+00
1
Step 428000
Ar -5.442329e-01 0.000000e+00 0.000000e+00
1
Step 429000
Ar -6.243788e-01 0.000000e+00 0.000000e+00
1
Step 430000
Ar -5.879910e-01 0.000000e+00 0.000000e+00
1
Step 431000
Ar -7.757051e-01 0.000000e+00 0.000000e+00
1
Step 432000
Ar -7.665922e-01 0.000000e+00 0.000000e+00
1
Step 433000
Ar -7.745169e-01 0.000000e+00 0.000000e+00
1
Step 434000
Ar -7.727631e-01 0.000000e+00 0.000000e+00
1
Step 435000
Ar -7.745256e-01 0.000000e+00 0.000000e+00
1
Step 436000
Ar -6.696161e-01 0.000000e+00 0.000000e+00
1
Step 437000
Ar -6.620420e-01 0.000000e+00 0.000000e+00
1
Step 438000
Ar -6.556195e-01 0.000000e+00 0.000000e+00
1
Step 439000
Ar -6.707563e-01 0.000000e+00 0.000000e+00
1
Step 440000
Ar -8.715964e-01 0.000000e+00 0.000000e+00
1
Step 441000
Ar -1.124428e+00 0.000000e+00 0.000000e+00
1
Step 442000
Ar -1.102575e+00 0.000000e+00 0.000000e+00
1
Step 443000
Ar -1.010697e+00 0.000000e+00 0.000000e+00
1
Step 444000
Ar -8.581488e-01 0.000000e+00 0.000000e+00
1
Step 445000
Ar -9.120469e-01 0.000000e+00 0.000000e+00
1
Step 446000
Ar -9.891521e-01 0.000000e+00 0.000000e+00
1
Step 447000
Ar -9.687339e-01 0.000000e+00 0.000000e+00
1
Step 448000
Ar -9.875817e-01 0.000000e+00 0.000000e+00
1
Step 449000
Ar -1.010887e+00 0.000000e+00 0.000000e+00
1
Step 450000
Ar -9.993678e-01 0.000000e+00 0.000000e+00
1
Step 451000
Ar -7.311482e-01 0.000000e+00 0.000000e+00
1
Step 452000
Ar -7.479204e-01 0.000000e+00 0.000000e+00
1
Step 453000
Ar -7.035688e-01 0.000000e+00 0.000000e+00
1
Step 454000
Ar -7.461197e-01 0.000000e+00 0.000000e+00
1
Step 455000
Ar -7.361009e-01 0.000000e+00 0.000000e+00
1
Step 456000
Ar -7.233551e-01 0.000000e+00 0.000000e+00
1
Step 457000
Ar -7.267485e-01 0.000000e+00 0.000000e+00
1
Step 458000
Ar -6.904972e-01 0.000000e+00 0.000000e+00
1
Step 459000
Ar -6.952525e-01 0.000000e+00 0.000000e+00
1
Step 460000
Ar -7.082198e-01 0.000000e+00 0.000000e+00
1
Step 461000
Ar -7.483733e-01 0.000000e+00 0.000000e+00
1
Step 462000
Ar -7.465152e-01 0.000000e+00 0.000000e+00
1
Step 463000
Ar -8.900643e-01 0.000000e+00 0.000000e+00
1
Step 464000
Ar -9.555680e-01 0.000000e+00 0.000000e+00
1
Step 465000
Ar -1.012448e+00 0.000000e+00 0.000000e+00
1
Step 466000
Ar -8.499077e-01 0.000000e+00 0.000000e+00
1
Step 467000
Ar -8.440510e-01 0.000000e+00 0.000000e+00
1
Step 468000
Ar -8.376960e-01 0.000000e+00 0.000000e+00
1
Step 469000
Ar -8.499639e-01 0.000000e+00 0.000000e+00
1
Step 470000
Ar -8.553937e-01 0.000000e+00 0.000000e+00
1
Step 471000
Ar -8.887911e-01 0.000000e+00 0.000000e+00
1
Step 472000
Ar -8.809800e-01 0.000000e+00 0.000000e+00
1
Step 473000
Ar -8.045497e-01 0.000000e+00 0.000000e+00
1
Step 474000
Ar -8.124039e-01 0.000000e+00 0.000000e+00
1
Step 475000
Ar -8.016560e-01 0.000000e+00 0.000000e+00
1
Step 476000
Ar -9.551306e-01 0.000000e+00 0.000000e+00
1
Step 477000
Ar -8.378862e-01 0.000000e+00 0.000000e+00
1
Step 478000
Ar -9.545785e-01 0.000000e+00 0.000000e+00
1
Step 479000
Ar -9.453362e-01 0.000000e+00 0.000000e+00
1
Step 480000
Ar -9.412450e-01 0.000000e+00 0.000000e+00
1
Step 481000
Ar -9.190326e-01 0.000000e+00 0.000000e+00
1
Step 482000
Ar -8.382625e-01 0.000000e+00 0.000000e+00
1
Step 483000
Ar -8.442022e-01 0.000000e+00 0.000000e+00
1
Step 484000
Ar -8.462988e-01 0.000000e+00 0.000000e+00
1
Step 485000
Ar -8.420523e-01 0.000000e+00 0.000000e+00
1
Step 486000
Ar -8.907935e-01 0.000000e+00 0.000000e+00
1
Step 487000
Ar -8.812147e-01 0.000000e+00 0.000000e+00
1
Step 488000
Ar -8.835146e-01 0.000000e+00 0.000000e+00
1
Step 489000
Ar -8.867684e-01 0.000000e+00 0.000000e+00
1
Step 490000
Ar -8.872052e-01 0.000000e+00 0.000000e+00
1
Step 491000
Ar -8.159394e-01 0.000000e+00 0.000000e+00
1
Step 492000
Ar -8.134518e-01 0.000000e+00 0.000000e+00
1
Step 493000
Ar -9.494853e-01 0.000000e+00 0.000000e+00
1
Step 494000
Ar -9.505513e-01 0.000000e+00 0.000000e+00
1
Step 495000
Ar -9.884795e-01 0.000000e+00 0.000000e+00
1
Step 496000
Ar -9.497900e-01 0.000000e+00 0.000000e+00
1
Step 497000
Ar -9.585561e-01 0.000000e+00 0.000000e+00
1
Step 498000
Ar -9.527851e-01 0.000000e+00 0.000000e+00
1
Step 499000
Ar -9.550639e-01 0.000000e+00 0.000000e+00
1
Step 500000
Ar -9.516966e-01 0.000000e+00 0.000000e+00
1
Step 501000
Ar -8.183887e-01 0.000000e+00 0.000000e+00
1
Step 502000
Ar -8.185272e-01 0.000000e+00 0.000000e+00
1
Step 503000
Ar -8.188374e-01 0.000000e+00 0.000000e+00
1
Step 504000
Ar -8.128654e-01 0.000000e+00 0.000000e+00
1
Step 505000
Ar -8.133144e-01 0.000000e+00 0.000000e+00
1
Step 506000
Ar -1.005279e+00 0.000000e+00 0.000000e+00
1
Step 507000
Ar -1.090604e+00 0.000000e+00 0.000000e+00
1
Step 508000
Ar -1.102075e+00 0.000000e+00 0.000000e+00
1
Step 509000
Ar -1.086627e+00 0.000000e+00 0.000000e+00
1
Step 510000
Ar -1.108722e+00 0.000000e+00 0.000000e+00
1
Step 511000
Ar -1.125310e+00 0.000000e+00 0.000000e+00
1
Step 512000
Ar -1.150268e+00 0.000000e+00 0.000000e+00
1
Step 513000
Ar -1.142750e+00 0.000000e+00 0.000000e+00
1
Step 514000
Ar -1.128363e+00 0.000000e+00 0.000000e+00
1
Step 515000
Ar -1.091791e+00 0.000000e+00 0.000000e+00
1
Step 516000
Ar -1.034067e+00 0.000000e+00 0.000000e+00
1
Step 517000
Ar -1.039506e+00 0.000000e+00 0.000000e+00
1
Step 518000
Ar -1.039295e+00 0.000000e+00 0.000000e+00
1
Step 519000
Ar -1.034503e+00 0.000000e+00 0.000000e+00
1
Step 520000
Ar -1.043725e+00 0.000000e+00 0.000000e+00
1
Step 521000
Ar -1.217185e+00 0.000000e+00 0.000000e+00
1
Step 522000
Ar -1.206584e+00 0.000000e+00 0.000000e+00
1
Step 523000
Ar -1.236938e+00 0.000000e+00 0.000000e+00
1
Step 524000
Ar -1.218361e+00 0.000000e+00 0.000000e+00
1
Step 525000
Ar -1.225104e+00 0.000000e+00 0.000000e+00
1
Step 526000
Ar -1.240941e+00 0.000000e+00 0.000000e+00
1
Step 527000
Ar -1.238646e+00 0.000000e+00 0.000000e+00
1
Step 528000
Ar -1.124205e+00 0.000000e+00 0.000000e+00
1
Step 529000
Ar -1.122220e+00 0.000000e+00 0.000000e+00
1
Step 530000
Ar -1.129307e+00 0.000000e+00 0.000000e+00
1
Step 531000
Ar -1.144634e+00 0.000000e+00 0.000000e+00
1
Step 532000
Ar -1.152187e+00 0.000000e+00 0.000000e+00
1
Step 533000
Ar -1.151657e+00 0.000000e+00 0.000000e+00
1
Step 534000
Ar -1.137281e+00 0.000000e+00 0.000000e+00
1
Step 535000
Ar -1.146416e+00 0.000000e+00 0.000000e+00
1
Step 536000
Ar -1.186650e+00 0.000000e+00 0.000000e+00
1
Step 537000
Ar -1.152917e+00 0.000000e+00 0.000000e+00
1
Step 538000
Ar -1.109254e+00 0.000000e+00 0.000000e+00
1
Step 539000
Ar -1.062300e+00 0.000000e+00 0.000000e+00
1
Step 540000
Ar -1.063489e+00 0.000000e+00 0.000000e+00
1
Step 541000
Ar -1.080056e+00 0.000000e+00 0.000000e+00
1
Step 542000
Ar -1.120985e+00 0.000000e+00 0.000000e+00
1
Step 543000
Ar -1.122147e+00 0.000000e+00 0.000000e+00
1
Step 544000
Ar -1.039737e+00 0.000000e+00 0.000000e+00
1
Step 545000
Ar -6.964700e-01 0.000000e+00 0.000000e+00
1
Step 546000
Ar -7.245457e-01 0.000000e+00 0.000000e+00
1
Step 547000
Ar -5.999745e-01 0.000000e+00 0.000000e+00
1
Step 548000
Ar -6.207145e-01 0.000000e+00 0.000000e+00
1
Step 549000
Ar -6.261738e-01 0.000000e+00 0.000000e+00
1
Step 550000
Ar -6.342924e-01 0.000000e+00 0.000000e+00
1
Step 551000
Ar -9.230850e-01 0.000000e+00 0.000000e+00
1
Step 552000
Ar -8.611200e-01 0.000000e+00 0.000000e+00
1
Step 553000
Ar -7.550778e-01 0.000000e+00 0.000000e+00
1
Step 554000
Ar -7.508675e-01 0.000000e+00 0.000000e+00
1
Step 555000
Ar -7.698971e-01 0.000000e+00 0.000000e+00
1
Step 556000
Ar -7.211223e-01 0.000000e+00 0.000000e+00
1
Step 557000
Ar -7.171730e-01 0.000000e+00 0.000000e+00
1
Step 558000
Ar -7.453477e-01 0.000000e+00 0.000000e+00
1
Step 559000
Ar -7.483123e-01 0.000000e+00 0.000000e+00
1
Step 560000
Ar -6.603845e-01 0.000000e+00 0.000000e+00
1
Step 561000
Ar -6.733344e-01 0.000000e+00 0.000000e+00
1
Step 562000
Ar -6.726535e-01 0.000000e+00 0.000000e+00
1
Step 563000
Ar -6.710343e-01 0.000000e+00 0.000000e+00
1
Step 564000
Ar -6.736204e-01 0.000000e+00 0.000000e+00
1
Step 565000
Ar -5.712602e-01 0.000000e+00 0.000000e+00
1
Step 566000
Ar -6.188212e-01 0.000000e+00 0.000000e+00
1
Step 567000
Ar -5.965616e-01 0.000000e+00 0.000000e+00
1
Step 568000
Ar -5.991605e-01 0.000000e+00 0.000000e+00
1
Step 569000
Ar -6.069568e-01 0.000000e+00 0.000000e+00
1
Step 570000
Ar -6.176451e-01 0.000000e+00 0.000000e+00
1
Step 571000
Ar -6.253131e-01 0.000000e+00 0.000000e+00
1
Step 572000
Ar -4.778046e-01 0.000000e+00 0.000000e+00
1
Step 573000
Ar -5.480234e-01 0.000000e+00 0.000000e+00
1
Step 574000
Ar -5.291344e-01 0.000000e+00 0.000000e+00
1
Step 575000
Ar -4.908651e-01 0.000000e+00 0.000000e+00
1
Step 576000
Ar -4.596061e-01 0.000000e+00 0.000000e+00
1
Step 577000
Ar -4.055031e-01 0.000000e+00 0.000000e+00
1
Step 578000
Ar -2.154125e-01 0.000000e+00 0.000000e+00
1
Step 579000
Ar -4.171422e-01 0.000000e+00 0.000000e+00
1
Step 580000
Ar -4.608206e-01 0.000000e+00 0.000000e+00
1
Step 581000
Ar -4.229810e-01 0.000000e+00 0.000000e+00
1
Step 582000
Ar -4.697801e-01 0.000000e+00 0.000000e+00
1
Step 583000
Ar -4.722050e-01 0.000000e+00 0.000000e+00
1
Step 584000
Ar -4.813809e-01 0.000000e+00 0.000000e+00
1
Step 585000
Ar -6.013026e-01 0.000000e+00 0.000000e+00
1
Step 586000
Ar -6.743835e-01 0.000000e+00 0.000000e+00
1
Step 587000
Ar -6.737519e-01 0.000000e+00 0.000000e+00
1
Step 588000
Ar -7.421160e-01 0.000000e+00 0.000000e+00
1
Step 589000
Ar -7.234631e-01 0.000000e+00 0.000000e+00
1
Step 590000
Ar -6.279532e-01 0.000000e+00 0.000000e+00
1
Step 591000
Ar -5.156819e-01 0.000000e+00 0.000000e+00
1
Step 592000
Ar -5.233902e-01 0.000000e+00 0.000000e+00
1
Step 593000
Ar -5.479685e-01 0.000000e+00 0.000000e+00
1
Step 594000
Ar -5.193179e-01 0.000000e+00 0.000000e+00
1
Step 595000
Ar -5.546521e-01 0.000000e+00 0.000000e+00
1
Step 596000
Ar -5.186977e-01 0.000000e+00 0.000000e+00
1
Step 597000
Ar -5.344995e-01 0.000000e+00 0.000000e+00
1
Step 598000
Ar -5.092642e-01 0.000000e+00 0.000000e+00
1
Step 599000
Ar -5.303821e-01 0.000000e+00 0.000000e+00
1
Step 600000
Ar -5.120980e-01 0.000000e+00 0.000000e+00
1
Step 601000
Ar -6.091945e-01 0.000000e+00 0.000000e+00
1
Step 602000
Ar -7.425300e-01 0.000000e+00 0.000000e+00
1
Step 603000
Ar -7.232216e-01 0.000000e+00 0.000000e+00
1
Step 604000
Ar -7.191278e-01 0.000000e+00 0.000000e+00
1
Step 605000
Ar -6.718658e-01 0.000000e+00 0.000000e+00
1
Step 606000
Ar -7.160203e-01 0.000000e+00 0.000000e+00
1
Step 607000
Ar -7.479197e-01 0.000000e+00 0.000000e+00
1
Step 608000
Ar -7.497731e-01 0.000000e+00 0.000000e+00
1
Step 609000
Ar -7.484376e-01 0.000000e+00 0.000000e+00
1
Step 610000
Ar -7.454300e-01 0.000000e+00 0.000000e+00
1
Step 611000
Ar -7.536481e-01 0.000000e+00 0.000000e+00
1
Step 612000
Ar -7.256094e-01 0.000000e+00 0.000000e+00
1
Step 613000
Ar -7.253090e-01 0.000000e+00 0.000000e+00
1
Step 614000
Ar -7.201547e-01 0.000000e+00 0.000000e+00
1
Step 615000
Ar -7.223575e-01 0.000000e+00 0.000000e+00
1
Step 616000
Ar -7.520681e-01 0.000000e+00 0.000000e+00
1
Step 617000
Ar -7.158628e-01 0.000000e+00 0.000000e+00
1
Step 618000
Ar -7.329711e-01 0.000000e+00 0.000000e+00
1
Step 619000
Ar -7.151933e-01 0.000000e+00 0.000000e+00
1
Step 620000
Ar -7.154197e-01 0.000000e+00 0.000000e+00
1
Step 621000
Ar -9.688955e-01 0.000000e+00 0.000000e+00
1
Step 622000
Ar -9.646858e-01 0.000000e+00 0.000000e+00
1
Step 623000
Ar -8.796627e-01 0.000000e+00 0.000000e+00
1
Step 624000
Ar -9.036366e-01 0.000000e+00 0.000000e+00
1
Step 625000
Ar -8.573493e-01 0.000000e+00 0.000000e+00
1
Step 626000
Ar -8.348225e-01 0.000000e+00 0.000000e+00
1
Step 627000
Ar -8.430745e-01 0.000000e+00 0.000000e+00
1
Step 628000
Ar -8.467167e-01 0.000000e+00 0.000000e+00
1
Step 629000
Ar -5.371593e-01 0.000000e+00 0.000000e+00
1
Step 630000
Ar -5.367353e-01 0.000000e+00 0.000000e+00
1
Step 631000
Ar -4.073601e-01 0.000000e+00 0.000000e+00
1
Step 632000
Ar -3.861833e-01 0.000000e+00 0.000000e+00
1
Step 633000
Ar -2.482173e-01 0.000000e+00 0.000000e+00
1
Step 634000
Ar -5.039235e-01 0.000000e+00 0.000000e+00
1
Step 635000
Ar -5.607080e-01 0.000000e+00 0.000000e+00
1
Step 636000
Ar -6.471016e-01 0.000000e+00 0.000000e+00
1
Step 637000
Ar -6.897904e-01 0.000000e+00 0.000000e+00
1
Step 638000
Ar -1.213374e+00 0.000000e+00 0.000000e+00
1
Step 639000
Ar -1.211111e+00 0.000000e+00 0.000000e+00
1
Step 640000
Ar -1.205789e+00 0.000000e+00 0.000000e+00
1
Step 641000
Ar -1.284572e+00 0.000000e+00 0.000000e+00
1
Step 642000
Ar -1.260757e+00 0.000000e+00 0.000000e+00
1
Step 643000
Ar -1.244937e+00 0.000000e+00 0.000000e+00
1
Step 644000
Ar -1.313256e+00 0.000000e+00 0.000000e+00
1
Step 645000
Ar -1.232344e+00 0.000000e+00 0.000000e+00
1
Step 646000
Ar -1.267645e+00 0.000000e+00 0.000000e+00
1
Step 647000
Ar -1.256010e+00 0.000000e+00 0.000000e+00
1
Step 648000
Ar -1.283309e+00 0.000000e+00 0.000000e+00
1
Step 649000
Ar -1.099522e+00 0.000000e+00 0.000000e+00
1
Step 650000