1
Step 120000
Ar 7.901380e-01 0.000000e+00 0.000000e+00
1
Step 121000
Ar 1.250164e+00 0.000000e+00 0.000000e+00
1
Step 122000
Ar 7.053055e-01 0.000000e+00 0.000000e+00
1
Step 123000
Ar 9.845168e-01 0.000000e+00 0.000000e+00
1
Step 124000
Ar 9.721925e-01 0.000000e+00 0.000000e+00
1
Step 125000
Ar 1.049808e+00 0.000000e+00 0.000000e+00
1
Step 126000
Ar 8.278766e-01 0.000000e+00 0.000000e+00
1
Step 127000
Ar 7.482322e-01 0.000000e+00 0.000000e+00
1
Step 128000
Ar 8.691681e-01 0.000000e+00 0.000000e+00
1
Step 129000
Ar 9.154879e-01 0.000000e+00 0.000000e+00
1
Step 130000
Ar 9.052842e-01 0.000000e+00 0.000000e+00
1
Step 131000
Ar 8.437456e-01 0.000000e+00 0.000000e+00
1
Step 132000
Ar 1.066906e+00 0.000000e+00 0.000000e+00
1
Step 133000
Ar 9.570059e-01 0.000000e+00 0.000000e+00
1
Step 134000
Ar 9.305501e-01 0.000000e+00 0.000000e+00
1
Step 135000
Ar 9.395207e-01 0.000000e+00 0.000000e+00
1
Step 136000
Ar 9.489713e-01 0.000000e+00 0.000000e+00
1
Step 137000
Ar 1.094293e+00 0.000000e+00 0.000000e+00
1
Step 138000
Ar 1.126446e+00 0.000000e+00 0.000000e+00
1
Step 139000
Ar 1.056735e+00 0.000000e+00 0.000000e+00
1
Step 140000
Ar 1.115756e+00 0.000000e+00 0.000000e+00
1
Step 141000
Ar 1.171527e+00 0.000000e+00 0.000000e+00
1
Step 142000
Ar 1.183603e+00 0.000000e+00 0.000000e+00
1
Step 143000
Ar 1.162510e+00 0.000000e+00 0.000000e+00
1
Step 144000
Ar 1.074067e+00 0.000000e+00 0.000000e+00
1
Step 145000
Ar 1.143290e+00 0.000000e+00 0.000000e+00
1
Step 146000
Ar 9.992403e-01 0.000000e+00 0.000000e+00
1
Step 147000
Ar 1.016480e+00 0.000000e+00 0.000000e+00
1
Step 148000
Ar 1.029500e+00 0.000000e+00 0.000000e+00
1
Step 149000
Ar 1.044565e+00 0.000000e+00 0.000000e+00
1
Step 150000
Ar 7.689698e-01 0.000000e+00 0.000000e+00
1
Step 151000
Ar 7.336695e-01 0.000000e+00 0.000000e+00
1
Step 152000
Ar 8.154664e-01 0.000000e+00 0.000000e+00
1
Step 153000
Ar 7.870995e-01 0.000000e+00 0.000000e+00
1
Step 154000
Ar 7.188018e-01 0.000000e+00 0.000000e+00
1
Step 155000
Ar 8.910126e-01 0.000000e+00 0.000000e+00
1
Step 156000
Ar 8.567936e-01 0.000000e+00 0.000000e+00
1
Step 157000
Ar 8.202061e-01 0.000000e+00 0.000000e+00
1
Step 158000
Ar 8.023282e-01 0.000000e+00 0.000000e+00
1
Step 159000
Ar 7.586125e-01 0.000000e+00 0.000000e+00
1
Step 160000
Ar 5.105681e-01 0.000000e+00 0.000000e+00
1
Step 161000
Ar 6.682527e-01 0.000000e+00 0.000000e+00
1
Step 162000
Ar 6.200828e-01 0.000000e+00 0.000000e+00
1
Step 163000
Ar 5.280411e-01 0.000000e+00 0.000000e+00
1
Step 164000
Ar 4.352780e-01 0.000000e+00 0.000000e+00
1
Step 165000
Ar 4.879652e-01 0.000000e+00 0.000000e+00
1
Step 166000
Ar 7.419311e-01 0.000000e+00 0.000000e+00
1
Step 167000
Ar 7.801161e-01 0.000000e+00 0.000000e+00
1
Step 168000
Ar 8.019062e-01 0.000000e+00 0.000000e+00
1
Step 169000
Ar 9.629619e-01 0.000000e+00 0.000000e+00
1
Step 170000
Ar 1.012060e+00 0.000000e+00 0.000000e+00
1
Step 171000
Ar 9.791384e-01 0.000000e+00 0.000000e+00
1
Step 172000
Ar 8.514467e-01 0.000000e+00 0.000000e+00
1
Step 173000
Ar 9.913641e-01 0.000000e+00 0.000000e+00
1
Step 174000
Ar 9.431778e-01 0.000000e+00 0.000000e+00
1
Step 175000
Ar 1.101630e+00 0.000000e+00 0.000000e+00
1
Step 176000
Ar 1.201223e+00 0.000000e+00 0.000000e+00
1
Step 177000
Ar 1.265770e+00 0.000000e+00 0.000000e+00
1
Step 178000
Ar 1.218546e+00 0.000000e+00 0.000000e+00
1
Step 179000
Ar 1.316438e+00 0.000000e+00 0.000000e+00
1
Step 180000
Ar 1.239633e+00 0.000000e+00 0.000000e+00
1
Step 181000
Ar 1.267862e+00 0.000000e+00 0.000000e+00
1
Step 182000
Ar 1.337552e+00 0.000000e+00 0.000000e+00
1
Step 183000
Ar 1.358560e+00 0.000000e+00 0.000000e+00
1
Step 184000
Ar 1.024224e+00 0.000000e+00 0.000000e+00
1
Step 185000
Ar 1.130030e+00 0.000000e+00 0.000000e+00
1
Step 186000
Ar 1.084675e+00 0.000000e+00 0.000000e+00
1
Step 187000
Ar 1.227788e+00 0.000000e+00 0.000000e+00
1
Step 188000
Ar 1.154010e+00 0.000000e+00 0.000000e+00
1
Step 189000
Ar 1.202054e+00 0.000000e+00 0.000000e+00
1
Step 190000
Ar 1.142205e+00 0.000000e+00 0.000000e+00
1
Step 191000
Ar 1.061206e+00 0.000000e+00 0.000000e+00
1
Step 192000
Ar 1.118781e+00 0.000000e+00 0.000000e+00
1
Step 193000
Ar 1.104278e+00 0.000000e+00 0.000000e+00
1
Step 194000
Ar 1.091665e+00 0.000000e+00 0.000000e+00
1
Step 195000
Ar 1.006884e+00 0.000000e+00 0.000000e+00
1
Step 196000
Ar 1.036823e+00 0.000000e+00 0.000000e+00
1
Step 197000
Ar 1.065388e+00 0.000000e+00 0.000000e+00
1
Step 198000
Ar 1.188925e+00 0.000000e+00 0.000000e+00
1
Step 199000
Ar 1.077484e+00 0.000000e+00 0.000000e+00
1
Step 200000
Ar 1.182288e+00 0.000000e+00 0.000000e+00
1
Step 201000
Ar 1.295410e+00 0.000000e+00 0.000000e+00
1
Step 202000
Ar 1.282851e+00 0.000000e+00 0.000000e+00
1
Step 203000
Ar 1.290001e+00 0.000000e+00 0.000000e+00
1
Step 204000
Ar 1.215421e+00 0.000000e+00 0.000000e+00
1
Step 205000
Ar 1.130184e+00 0.000000e+00 0.000000e+00
1
Step 206000
Ar 8.835216e-01 0.000000e+00 0.000000e+00
1
Step 207000
Ar 8.308411e-01 0.000000e+00 0.000000e+00
1
Step 208000
Ar 8.958557e-01 0.000000e+00 0.000000e+00
1
Step 209000
Ar 5.713209e-01 0.000000e+00 0.000000e+00
1
Step 210000
Ar 6.475134e-01 0.000000e+00 0.000000e+00
1
Step 211000
Ar 6.077516e-01 0.000000e+00 0.000000e+00
1
Step 212000
Ar 5.847695e-01 0.000000e+00 0.000000e+00
1
Step 213000
Ar 6.794533e-01 0.000000e+00 0.000000e+00
1
Step 214000
Ar 6.950529e-01 0.000000e+00 0.000000e+00
1
Step 215000
Ar 6.312724e-01 0.000000e+00 0.000000e+00
1
Step 216000
Ar 5.018609e-01 0.000000e+00 0.000000e+00
1
Step 217000
Ar 3.324709e-01 0.000000e+00 0.000000e+00
1
Step 218000
Ar 4.728366e-01 0.000000e+00 0.000000e+00
1
Step 219000
Ar 5.890362e-01 0.000000e+00 0.000000e+00
1
Step 220000
Ar 6.412850e-01 0.000000e+00 0.000000e+00
1
Step 221000
Ar 7.277566e-01 0.000000e+00 0.000000e+00
1
Step 222000
Ar 6.862637e-01 0.000000e+00 0.000000e+00
1
Step 223000
Ar 7.098250e-01 0.000000e+00 0.000000e+00
1
Step 224000
Ar 7.766157e-01 0.000000e+00 0.000000e+00
1
Step 225000
Ar 9.644454e-01 0.000000e+00 0.000000e+00
1
Step 226000
Ar 7.905651e-01 0.000000e+00 0.000000e+00
1
Step 227000
Ar 8.810814e-01 0.000000e+00 0.000000e+00
1
Step 228000
Ar 8.426953e-01 0.000000e+00 0.000000e+00
1
Step 229000
Ar 9.250013e-01 0.000000e+00 0.000000e+00
1
Step 230000
Ar 9.261247e-01 0.000000e+00 0.000000e+00
1
Step 231000
Ar 8.625993e-01 0.000000e+00 0.000000e+00
1
Step 232000
Ar 9.142097e-01 0.000000e+00 0.000000e+00
1
Step 233000
Ar 9.041773e-01 0.000000e+00 0.000000e+00
1
Step 234000
Ar 6.778878e-01 0.000000e+00 0.000000e+00
1
Step 235000
Ar 5.487895e-01 0.000000e+00 0.000000e+00
1
Step 236000
Ar 4.419920e-01 0.000000e+00 0.000000e+00
1
Step 237000
Ar 4.095345e-01 0.000000e+00 0.000000e+00
1
Step 238000
Ar 3.863483e-01 0.000000e+00 0.000000e+00
1
Step 239000
Ar 6.279156e-02 0.000000e+00 0.000000e+00
1
Step 240000
Ar -1.060159e+00 0.000000e+00 0.000000e+00
1
Step 241000
Ar -1.016766e+00 0.000000e+00 0.000000e+00
1
Step 242000
Ar -9.364417e-01 0.000000e+00 0.000000e+00
1
Step 243000
Ar -9.819907e-01 0.000000e+00 0.000000e+00
1
Step 244000
Ar -9.477688e-01 0.000000e+00 0.000000e+00
1
Step 245000
Ar -7.836622e-01 0.000000e+00 0.000000e+00
1
Step 246000
Ar -7.406896e-01 0.000000e+00 0.000000e+00
1
Step 247000
Ar -7.722849e-01 0.000000e+00 0.000000e+00
1
Step 248000
Ar -6.307384e-01 0.000000e+00 0.000000e+00
1
Step 249000
Ar -7.550551e-01 0.000000e+00 0.000000e+00
1
Step 250000
Ar -7.010846e-01 0.000000e+00 0.000000e+00
1
Step 251000
Ar -6.535198e-01 0.000000e+00 0.000000e+00
1
Step 252000
Ar -6.424308e-01 0.000000e+00 0.000000e+00
1
Step 253000
Ar -8.985099e-01 0.000000e+00 0.000000e+00
1
Step 254000
Ar -8.037892e-01 0.000000e+00 0.000000e+00
1
Step 255000
Ar -8.667685e-01 0.000000e+00 0.000000e+00
1
Step 256000
Ar -8.195543e-01 0.000000e+00 0.000000e+00
1
Step 257000
Ar -8.426546e-01 0.000000e+00 0.000000e+00
1
Step 258000
Ar -8.864266e-01 0.000000e+00 0.000000e+00
1
Step 259000
Ar -1.134258e+00 0.000000e+00 0.000000e+00
1
Step 260000
Ar -1.100388e+00 0.000000e+00 0.000000e+00
1
Step 261000
Ar -1.032862e+00 0.000000e+00 0.000000e+00
1
Step 262000
Ar -9.610951e-01 0.000000e+00 0.000000e+00
1
Step 263000
Ar -9.181046e-01 0.000000e+00 0.000000e+00
1
Step 264000
Ar -7.209870e-01 0.000000e+00 0.000000e+00
1
Step 265000
Ar -6.847661e-01 0.000000e+00 0.000000e+00
1
Step 266000
Ar -6.700707e-01 0.000000e+00 0.000000e+00
1
Step 267000
Ar -9.043041e-01 0.000000e+00 0.000000e+00
1
Step 268000
Ar -1.094123e+00 0.000000e+00 0.000000e+00
1
Step 269000
Ar -9.299854e-01 0.000000e+00 0.000000e+00
1
Step 270000
Ar -9.998307e-01 0.000000e+00 0.000000e+00
1
Step 271000
Ar -9.703891e-01 0.000000e+00 0.000000e+00
1
Step 272000
Ar -1.188153e+00 0.000000e+00 0.000000e+00
1
Step 273000
Ar -1.163374e+00 0.000000e+00 0.000000e+00
1
Step 274000
Ar -1.217762e+00 0.000000e+00 0.000000e+00
1
Step 275000
Ar -1.253800e+00 0.000000e+00 0.000000e+00
1
Step 276000
Ar -1.289761e+00 0.000000e+00 0.000000e+00
1
Step 277000
Ar -1.261190e+00 0.000000e+00 0.000000e+00
1
Step 278000
Ar -1.176785e+00 0.000000e+00 0.000000e+00
1
Step 279000
Ar -1.196596e+00 0.000000e+00 0.000000e+00
1
Step 280000
Ar -1.228580e+00 0.000000e+00 0.000000e+00
1
Step 281000
Ar -1.153512e+00 0.000000e+00 0.000000e+00
1
Step 282000
Ar -1.110844e+00 0.000000e+00 0.000000e+00
1
Step 283000
Ar -1.142917e+00 0.000000e+00 0.000000e+00
1
Step 284000
Ar -1.119190e+00 0.000000e+00 0.000000e+00
1
Step 285000
Ar -1.073867e+00 0.000000e+00 0.000000e+00
1
Step 286000
Ar -9.866683e-01 0.000000e+00 0.000000e+00
1
Step 287000
Ar -1.044748e+00 0.000000e+00 0.000000e+00
1
Step 288000
Ar -1.082876e+00 0.000000e+00 0.000000e+00
1
Step 289000
Ar -1.051700e+00 0.000000e+00 0.000000e+00
1
Step 290000
Ar -7.801311e-01 0.000000e+00 0.000000e+00
1
Step 291000
Ar -1.243243e+00 0.000000e+00 0.000000e+00
1
Step 292000
Ar -1.119698e+00 0.000000e+00 0.000000e+00
1
Step 293000
Ar -1.204280e+00 0.000000e+00 0.000000e+00
1
Step 294000
Ar -1.213221e+00 0.000000e+00 0.000000e+00
1
Step 295000
Ar -1.318273e+00 0.000000e+00 0.000000e+00
1
Step 296000
Ar -1.134872e+00 0.000000e+00 0.000000e+00
1
Step 297000
Ar -1.078987e+00 0.000000e+00 0.000000e+00
1
Step 298000
Ar -1.357898e+00 0.000000e+00 0.000000e+00
1
Step 299000
Ar -1.168285e+00 0.000000e+00 0.000000e+00
1
Step 300000
Ar -1.183548e+00 0.000000e+00 0.000000e+00
1
Step 301000
Ar -1.149597e+00 0.000000e+00 0.000000e+00
1
Step 302000
Ar -1.276722e+00 0.000000e+00 0.000000e+00
1
Step 303000
Ar -1.308372e+00 0.000000e+00 0.000000e+00
1
Step 304000
Ar -1.241249e+00 0.000000e+00 0.000000e+00
1
Step 305000
Ar -1.128134e+00 0.000000e+00 0.000000e+00
1
Step 306000
Ar -1.020134e+00 0.000000e+00 0.000000e+00
1
Step 307000
Ar -9.530081e-01 0.000000e+00 0.000000e+00
1
Step 308000
Ar -1.068388e+00 0.000000e+00 0.000000e+00
1
Step 309000
Ar -1.008056e+00 0.000000e+00 0.000000e+00
1
Step 310000
Ar -9.911712e-01 0.000000e+00 0.000000e+00
1
Step 311000
Ar -8.759368e-01 0.000000e+00 0.000000e+00
1
Step 312000
Ar -8.486021e-01 0.000000e+00 0.000000e+00
1
Step 313000
Ar -8.574188e-01 0.000000e+00 0.000000e+00
1
Step 314000
Ar -8.032841e-01 0.000000e+00 0.000000e+00
1
Step 315000
Ar -8.331090e-01 0.000000e+00 0.000000e+00
1
Step 316000
Ar -1.045433e+00 0.000000e+00 0.000000e+00
1
Step 317000
Ar -8.916952e-01 0.000000e+00 0.000000e+00
1
Step 318000
Ar -9.236419e-01 0.000000e+00 0.000000e+00
1
Step 319000
Ar -9.110089e-01 0.000000e+00 0.000000e+00
1
Step 320000
Ar -8.574220e-01 0.000000e+00 0.000000e+00
1
Step 321000
Ar -8.136450e-01 0.000000e+00 0.000000e+00
1
Step 322000
Ar -7.916647e-01 0.000000e+00 0.000000e+00
1
Step 323000
Ar -3.545463e-01 0.000000e+00 0.000000e+00
1
Step 324000
Ar -5.922960e-01 0.000000e+00 0.000000e+00
1
Step 325000
Ar -5.406078e-01 0.000000e+00 0.000000e+00
1
Step 326000
Ar -7.317000e-01 0.000000e+00 0.000000e+00
1
Step 327000
Ar -6.080910e-01 0.000000e+00 0.000000e+00
1
Step 328000
Ar -5.769648e-01 0.000000e+00 0.000000e+00
1
Step 329000
Ar -6.017274e-01 0.000000e+00 0.000000e+00
1
Step 330000
Ar -7.634886e-01 0.000000e+00 0.000000e+00
1
Step 331000
Ar -7.153355e-01 0.000000e+00 0.000000e+00
1
Step 332000
Ar -6.156124e-01 0.000000e+00 0.000000e+00
1
Step 333000
Ar -1.713892e-01 0.000000e+00 0.000000e+00
1
Step 334000
Ar -3.096924e-01 0.000000e+00 0.000000e+00
1
Step 335000
Ar -3.448164e-01 0.000000e+00 0.000000e+00
1
Step 336000
Ar -3.280950e-01 0.000000e+00 0.000000e+00
1
Step 337000
Ar -5.047350e-01 0.000000e+00 0.000000e+00
1
Step 338000
Ar -5.646453e-01 0.000000e+00 0.000000e+00
1
Step 339000
Ar -5.330721e-01 0.000000e+00 0.000000e+00
1
Step 340000
Ar -4.700060e-01 0.000000e+00 0.000000e+00
1
Step 341000
Ar -3.997092e-01 0.000000e+00 0.000000e+00
1
Step 342000
Ar -3.837717e-01 0.000000e+00 0.000000e+00
1
Step 343000
Ar -3.705587e-01 0.000000e+00 0.000000e+00
1
Step 344000
Ar -5.224267e-01 0.000000e+00 0.000000e+00
1
Step 345000
Ar -4.570302e-01 0.000000e+00 0.000000e+00
1
Step 346000
Ar -4.915126e-01 0.000000e+00 0.000000e+00
1
Step 347000
Ar -4.827729e-01 0.000000e+00 0.000000e+00
1
Step 348000
Ar -5.216467e-01 0.000000e+00 0.000000e+00
1
Step 349000
Ar -4.458318e-01 0.000000e+00 0.000000e+00
1
Step 350000
Ar -4.149163e-01 0.000000e+00 0.000000e+00
1
Step 351000
Ar -4.316404e-01 0.000000e+00 0.000000e+00
1
Step 352000
Ar -4.456827e-01 0.000000e+00 0.000000e+00
1
Step 353000
Ar -5.115320e-01 0.000000e+00 0.000000e+00
1
Step 354000
Ar -4.939025e-01 0.000000e+00 0.000000e+00
1
Step 355000
Ar -5.492334e-01 0.000000e+00 0.000000e+00
1
Step 356000
Ar -6.510517e-01 0.000000e+00 0.000000e+00
1
Step 357000
Ar -6.260963e-01 0.000000e+00 0.000000e+00
1
Step 358000
Ar -6.382289e-01 0.000000e+00 0.000000e+00
1
Step 359000
Ar -6.784151e-01 0.000000e+00 0.000000e+00
1
Step 360000
Ar -1.033962e+00 0.000000e+00 0.000000e+00
1
Step 361000
Ar -8.962506e-01 0.000000e+00 0.000000e+00
1
Step 362000
Ar -9.904081e-01 0.000000e+00 0.000000e+00
1
Step 363000
Ar -1.342136e+00 0.000000e+00 0.000000e+00
1
Step 364000
Ar -1.330894e+00 0.000000e+00 0.000000e+00
1
Step 365000
Ar -1.299786e+00 0.000000e+00 0.000000e+00
1
Step 366000
Ar -1.386799e+00 0.000000e+00 0.000000e+00
1
Step 367000
Ar -1.279085e+00 0.000000e+00 0.000000e+00
1
Step 368000
Ar -1.309246e+00 0.000000e+00 0.000000e+00
1
Step 369000
Ar -1.232398e+00 0.000000e+00 0.000000e+00
1
Step 370000
Ar -1.173784e+00 0.000000e+00 0.000000e+00
1
Step 371000
Ar -1.272305e+00 0.000000e+00 0.000000e+00
1
Step 372000
Ar -1.095600e+00 0.000000e+00 0.000000e+00
1
Step 373000
Ar -1.004487e+00 0.000000e+00 0.000000e+00
1
Step 374000
Ar -1.056246e+00 0.000000e+00 0.000000e+00
1
Step 375000
Ar -1.062454e+00 0.000000e+00 0.000000e+00
1
Step 376000
Ar -1.144769e+00 0.000000e+00 0.000000e+00
1
Step 377000
Ar -1.022025e+00 0.000000e+00 0.000000e+00
1
Step 378000
Ar -1.028140e+00 0.000000e+00 0.000000e+00
1
Step 379000
Ar -1.086769e+00 0.000000e+00 0.000000e+00
1
Step 380000
Ar -1.109128e+00 0.000000e+00 0.000000e+00
1
Step 381000
Ar -1.090947e+00 0.000000e+00 0.000000e+00
1
Step 382000
Ar -6.972053e-01 0.000000e+00 0.000000e+00
1
Step 383000
Ar -7.553107e-01 0.000000e+00 0.000000e+00
1
Step 384000
Ar -7.099152e-01 0.000000e+00 0.000000e+00
1
Step 385000
Ar -6.819261e-01 0.000000e+00 0.000000e+00
1
Step 386000
Ar -4.990408e-01 0.000000e+00 0.000000e+00
1
Step 387000
Ar -6.078157e-01 0.000000e+00 0.000000e+00
1
Step 388000
Ar -7.473126e-01 0.000000e+00 0.000000e+00
1
Step 389000
Ar -7.284247e-01 0.000000e+00 0.000000e+00
1
Step 390000
Ar -7.482048e-01 0.000000e+00 0.000000e+00
1
Step 391000
Ar -6.933153e-01 0.000000e+00 0.000000e+00
1
Step 392000
Ar -6.679272e-01 0.000000e+00 0.000000e+00
1
Step 393000
Ar -6.366686e-01 0.000000e+00 0.000000e+00
1
Step 394000
Ar -5.552365e-01 0.000000e+00 0.000000e+00
1
Step 395000
Ar -5.831712e-01 0.000000e+00 0.000000e+00
1
Step 396000
Ar -5.979858e-01 0.000000e+00 0.000000e+00
1
Step 397000
Ar -5.766177e-01 0.000000e+00 0.000000e+00
1
Step 398000
Ar -5.865042e-01 0.000000e+00 0.000000e+00
1
Step 399000
Ar -5.124546e-01 0.000000e+00 0.000000e+00
1
Step 400000
Ar -5.711126e-01 0.000000e+00 0.000000e+00
1
Step 401000
Ar -2.228762e-01 0.000000e+00 0.000000e+00
1
Step 402000
Ar -2.716023e-01 0.000000e+00 0.000000e+00
1
Step 403000
Ar -2.799839e-01 0.000000e+00 0.000000e+00
1
Step 404000
Ar -3.348887e-01 0.000000e+00 0.000000e+00
1
Step 405000
Ar -4.093410e-01 0.000000e+00 0.000000e+00
1
Step 406000
Ar -3.907844e-01 0.000000e+00 0.000000e+00
1
Step 407000
Ar -1.927058e-01 0.000000e+00 0.000000e+00
1
Step 408000
Ar -8.912000e-02 0.000000e+00 0.000000e+00
1
Step 409000
Ar 2.624041e-01 0.000000e+00 0.000000e+00
1
Step 410000
Ar 3.710541e-01 0.000000e+00 0.000000e+00
1
Step 411000
Ar 2.450352e-01 0.000000e+00 0.000000e+00
1
Step 412000
Ar 1.356006e-01 0.000000e+00 0.000000e+00
1
Step 413000
Ar 2.365521e-01 0.000000e+00 0.000000e+00
1
Step 414000
Ar 1.583674e-01 0.000000e+00 0.000000e+00
1
Step 415000
Ar 1.180365e-01 0.000000e+00 0.000000e+00
1
Step 416000
Ar 8.977127e-02 0.000000e+00 0.000000e+00
1
Step 417000
Ar 7.229406e-02 0.000000e+00 0.000000e+00
1
Step 418000
Ar 2.196977e-01 0.000000e+00 0.000000e+00
1
Step 419000
Ar 3.154566e-01 0.000000e+00 0.000000e+00
1
Step 420000
Ar 3.569453e-01 0.000000e+00 0.000000e+00
1
Step 421000
Ar 2.860225e-01 0.000000e+00 0.000000e+00
1
Step 422000
Ar 3.960123e-01 0.000000e+00 0.000000e+00
1
Step 423000
Ar 3.448491e-01 0.000000e+00 0.000000e+00
1
Step 424000
Ar 4.173261e-01 0.000000e+00 0.000000e+00
1
Step 425000
Ar 4.226330e-01 0.000000e+00 0.000000e+00
1
Step 426000
Ar 5.581371e-01 0.000000e+00 0.000000e+00
1
Step 427000
Ar 5.673787e-01 0.000000e+00 0.000000e+00
1
Step 428000
Ar 4.931807e-01 0.000000e+00 0.000000e+00
1
Step 429000
Ar 5.409169e-01 0.000000e+00 0.000000e+00
1
Step 430000
Ar 5.207469e-01 0.000000e+00 0.000000e+00
1
Step 431000
Ar 7.642539e-01 0.000000e+00 0.000000e+00
1
Step 432000
Ar 8.724214e-01 0.000000e+00 0.000000e+00
1
Step 433000
Ar 7.547512e-01 0.000000e+00 0.000000e+00
1
Step 434000
Ar 9.750576e-01 0.000000e+00 0.000000e+00
1
Step 435000
Ar 9.562455e-01 0.000000e+00 0.000000e+00
1
Step 436000
Ar 8.098612e-01 0.000000e+00 0.000000e+00
1
Step 437000
Ar 8.325834e-01 0.000000e+00 0.000000e+00
1
Step 438000
Ar 9.089990e-01 0.000000e+00 0.000000e+00
1
Step 439000
Ar 1.019584e+00 0.000000e+00 0.000000e+00
1
Step 440000
Ar 1.034368e+00 0.000000e+00 0.000000e+00
1
Step 441000
Ar 1.057432e+00 0.000000e+00 0.000000e+00
1
Step 442000
Ar 9.955630e-01 0.000000e+00 0.000000e+00
1
Step 443000
Ar 1.005374e+00 0.000000e+00 0.000000e+00
1
Step 444000
Ar 9.375645e-01 0.000000e+00 0.000000e+00
1
Step 445000
Ar 8.678979e-01 0.000000e+00 0.000000e+00
1
Step 446000
Ar 6.585223e-01 0.000000e+00 0.000000e+00
1
Step 447000
Ar 5.968704e-01 0.000000e+00 0.000000e+00
1
Step 448000
Ar 6.561767e-01 0.000000e+00 0.000000e+00
1
Step 449000
Ar 6.255526e-01 0.000000e+00 0.000000e+00
1
Step 450000
Ar 7.145065e-01 0.000000e+00 0.000000e+00
1
Step 451000
Ar 7.420959e-01 0.000000e+00 0.000000e+00
1
Step 452000
Ar 4.570956e-01 0.000000e+00 0.000000e+00
1
Step 453000
Ar 4.474476e-01 0.000000e+00 0.000000e+00
1
Step 454000
Ar 5.788529e-01 0.000000e+00 0.000000e+00
1
Step 455000
Ar 4.693602e-01 0.000000e+00 0.000000e+00
1
Step 456000
Ar 6.064757e-01 0.000000e+00 0.000000e+00
1
Step 457000
Ar 6.719409e-01 0.000000e+00 0.000000e+00
1
Step 458000
Ar 5.293835e-01 0.000000e+00 0.000000e+00
1
Step 459000
Ar 6.402682e-01 0.000000e+00 0.000000e+00
1
Step 460000
Ar 5.939862e-01 0.000000e+00 0.000000e+00
1
Step 461000
Ar 8.125830e-01 0.000000e+00 0.000000e+00
1
Step 462000
Ar 9.874890e-01 0.000000e+00 0.000000e+00
1
Step 463000
Ar 1.385379e+00 0.000000e+00 0.000000e+00
1
Step 464000
Ar 1.371966e+00 0.000000e+00 0.000000e+00
1
Step 465000
Ar 1.236417e+00 0.000000e+00 0.000000e+00
1
Step 466000
Ar 1.225194e+00 0.000000e+00 0.000000e+00
1
Step 467000
Ar 1.261094e+00 0.000000e+00 0.000000e+00
1
Step 468000
Ar 1.247437e+00 0.000000e+00 0.000000e+00
1
Step 469000
Ar 1.331452e+00 0.000000e+00 0.000000e+00
1
Step 470000
Ar 1.302365e+00 0.000000e+00 0.000000e+00
1
Step 471000
Ar 1.403407e+00 0.000000e+00 0.000000e+00
1
Step 472000
Ar 1.348029e+00 0.000000e+00 0.000000e+00
1
Step 473000
Ar 1.353738e+00 0.000000e+00 0.000000e+00
1
Step 474000
Ar 1.153111e+00 0.000000e+00 0.000000e+00
1
Step 475000
Ar 1.173879e+00 0.000000e+00 0.000000e+00
1
Step 476000
Ar 1.169146e+00 0.000000e+00 0.000000e+00
1
Step 477000
Ar 1.134124e+00 0.000000e+00 0.000000e+00
1
Step 478000
Ar 1.168963e+00 0.000000e+00 0.000000e+00
1
Step 479000
Ar 1.345001e+00 0.000000e+00 0.000000e+00
1
Step 480000
Ar 1.428507e+00 0.000000e+00 0.000000e+00
1
Step 481000
Ar 1.392281e+00 0.000000e+00 0.000000e+00
1
Step 482000
Ar 1.448143e+00 0.000000e+00 0.000000e+00
1
Step 483000
Ar 1.370281e+00 0.000000e+00 0.000000e+00
1
Step 484000
Ar 1.410346e+00 0.000000e+00 0.000000e+00
1
Step 485000
Ar 1.424963e+00 0.000000e+00 0.000000e+00
1
Step 486000
Ar 5.684797e-01 0.000000e+00 0.000000e+00
1
Step 487000
Ar 4.260113e-01 0.000000e+00 0.000000e+00
1
Step 488000
Ar 5.346755e-01 0.000000e+00 0.000000e+00
1
Step 489000
Ar 5.578384e-01 0.000000e+00 0.000000e+00
1
Step 490000
Ar 5.499790e-01 0.000000e+00 0.000000e+00
1
Step 491000
Ar 1.935359e-01 0.000000e+00 0.000000e+00
1
Step 492000
Ar 2.059893e-01 0.000000e+00 0.000000e+00
1
Step 493000
Ar 2.154403e-01 0.000000e+00 0.000000e+00
1
Step 494000
Ar 1.244002e-01 0.000000e+00 0.000000e+00
1
Step 495000
Ar 1.726797e-01 0.000000e+00 0.000000e+00
1
Step 496000
Ar 1.482248e-01 0.000000e+00 0.000000e+00
1
Step 497000
Ar 1.851707e-01 0.000000e+00 0.000000e+00
1
Step 498000
Ar 2.878811e-02 0.000000e+00 0.000000e+00
1
Step 499000
Ar 4.483178e-02 0.000000e+00 0.000000e+00
1
Step 500000
Ar -2.477225e-01 0.000000e+00 0.000000e+00
1
Step 501000
Ar -1.514535e-01 0.000000e+00 0.000000e+00
1
Step 502000
Ar -1.214001e-01 0.000000e+00 0.000000e+00
1
Step 503000
Ar -2.072658e-01 0.000000e+00 0.000000e+00
1
Step 504000
Ar -1.770755e-01 0.000000e+00 0.000000e+00
1
Step 505000
Ar -4.672905e-01 0.000000e+00 0.000000e+00
1
Step 506000
Ar -4.640947e-01 0.000000e+00 0.000000e+00
1
Step 507000
Ar -3.613555e-01 0.000000e+00 0.000000e+00
1
Step 508000
Ar -2.590733e-01 0.000000e+00 0.000000e+00
1
Step 509000
Ar -2.656755e-01 0.000000e+00 0.000000e+00
1
Step 510000
Ar -8.223326e-01 0.000000e+00 0.000000e+00
1
Step 511000
Ar -8.310235e-01 0.000000e+00 0.000000e+00
1
Step 512000
Ar -8.733857e-01 0.000000e+00 0.000000e+00
1
Step 513000
Ar -1.068915e+00 0.000000e+00 0.000000e+00
1
Step 514000
Ar -9.723206e-01 0.000000e+00 0.000000e+00
1
Step 515000
Ar -9.764623e-01 0.000000e+00 0.000000e+00
1
Step 516000
Ar -9.430310e-01 0.000000e+00 0.000000e+00
1
Step 517000
Ar -9.572690e-01 0.000000e+00 0.000000e+00
1
Step 518000
Ar -9.363721e-01 0.000000e+00 0.000000e+00
1
Step 519000
Ar -9.661806e-01 0.000000e+00 0.000000e+00
1
Step 520000
Ar -7.944687e-01 0.000000e+00 0.000000e+00
1
Step 521000
Ar -1.195845e+00 0.000000e+00 0.000000e+00
1
Step 522000
Ar -1.248670e+00 0.000000e+00 0.000000e+00
1
Step 523000
Ar -1.256547e+00 0.000000e+00 0.000000e+00
1
Step 524000
Ar -1.452677e+00 0.000000e+00 0.000000e+00
1
Step 525000
Ar -1.414376e+00 0.000000e+00 0.000000e+00
1
Step 526000
Ar -1.394105e+00 0.000000e+00 0.000000e+00
1
Step 527000
Ar -1.458702e+00 0.000000e+00 0.000000e+00
1
Step 528000
Ar -1.366347e+00 0.000000e+00 0.000000e+00
1
Step 529000
Ar -1.381976e+00 0.000000e+00 0.000000e+00
1
Step 530000
Ar -1.339336e+00 0.000000e+00 0.000000e+00
1
Step 531000
Ar -1.288896e+00 0.000000e+00 0.000000e+00
1
Step 532000
Ar -1.323988e+00 0.000000e+00 0.000000e+00
1
Step 533000
Ar -1.264001e+00 0.000000e+00 0.000000e+00
1
Step 534000
Ar -1.473016e+00 0.000000e+00 0.000000e+00
1
Step 535000
Ar -1.427431e+00 0.000000e+00 0.000000e+00
1
Step 536000
Ar -1.439257e+00 0.000000e+00 0.000000e+00
1
Step 537000
Ar -1.408355e+00 0.000000e+00 0.000000e+00
1
Step 538000
Ar -1.401140e+00 0.000000e+00 0.000000e+00
1
Step 539000
Ar -9.316908e-01 0.000000e+00 0.000000e+00
1
Step 540000
Ar -8.843177e-01 0.000000e+00 0.000000e+00
1
Step 541000
Ar -8.431256e-01 0.000000e+00 0.000000e+00
1
Step 542000
Ar -7.695741e-01 0.000000e+00 0.000000e+00
1
Step 543000
Ar -8.989180e-01 0.000000e+00 0.000000e+00
1
Step 544000
Ar -8.050403e-01 0.000000e+00 0.000000e+00
1
Step 545000
Ar -8.520126e-01 0.000000e+00 0.000000e+00
1
Step 546000
Ar -6.215439e-01 0.000000e+00 0.000000e+00
1
Step 547000
Ar -7.301366e-01 0.000000e+00 0.000000e+00
1
Step 548000
Ar -7.137686e-01 0.000000e+00 0.000000e+00
1
Step 549000
Ar -7.595165e-01 0.000000e+00 0.000000e+00
1
Step 550000
Ar -7.948083e-01 0.000000e+00 0.000000e+00
1
Step 551000
Ar -7.794194e-01 0.000000e+00 0.000000e+00
1
Step 552000
Ar -7.783670e-01 0.000000e+00 0.000000e+00
1
Step 553000
Ar -8.336497e-01 0.000000e+00 0.000000e+00
1
Step 554000
Ar -8.820200e-01 0.000000e+00 0.000000e+00
1
Step 555000
Ar -8.654255e-01 0.000000e+00 0.000000e+00
1
Step 556000
Ar -8.248561e-01 0.000000e+00 0.000000e+00
1
Step 557000
Ar -8.150838e-01 0.000000e+00 0.000000e+00
1
Step 558000
Ar -9.132130e-01 0.000000e+00 0.000000e+00
1
Step 559000
Ar -9.231502e-01 0.000000e+00 0.000000e+00
1
Step 560000
Ar -1.076952e+00 0.000000e+00 0.000000e+00
1
Step 561000
Ar -8.733463e-01 0.000000e+00 0.000000e+00
1
Step 562000
Ar -9.057317e-01 0.000000e+00 0.000000e+00
1
Step 563000
Ar -1.225831e+00 0.000000e+00 0.000000e+00
1
Step 564000
Ar -1.159890e+00 0.000000e+00 0.000000e+00
1
Step 565000
Ar -1.227899e+00 0.000000e+00 0.000000e+00
1
Step 566000
Ar -1.304210e+00 0.000000e+00 0.000000e+00
1
Step 567000
Ar -1.106135e+00 0.000000e+00 0.000000e+00
1
Step 568000
Ar -1.204449e+00 0.000000e+00 0.000000e+00
1
Step 569000
Ar -1.181645e+00 0.000000e+00 0.000000e+00
1
Step 570000
Ar -1.212985e+00 0.000000e+00 0.000000e+00
1
Step 571000
Ar -1.124995e+00 0.000000e+00 0.000000e+00
1
Step 572000
Ar -9.894686e-01 0.000000e+00 0.000000e+00
1
Step 573000
Ar -1.037909e+00 0.000000e+00 0.000000e+00
1
Step 574000
Ar -1.000290e+00 0.000000e+00 0.000000e+00
1
Step 575000
Ar -1.213866e+00 0.000000e+00 0.000000e+00
1
Step 576000
Ar -1.038705e+00 0.000000e+00 0.000000e+00
1
Step 577000
Ar -1.154350e+00 0.000000e+00 0.000000e+00
1
Step 578000
Ar -1.282688e+00 0.000000e+00 0.000000e+00
1
Step 579000
Ar -1.293530e+00 0.000000e+00 0.000000e+00
1
Step 580000
Ar -1.354025e+00 0.000000e+00 0.000000e+00
1
Step 581000
Ar -1.361985e+00 0.000000e+00 0.000000e+00
1
Step 582000
Ar -1.238505e+00 0.000000e+00 0.000000e+00
1
Step 583000
Ar -1.267028e+00 0.000000e+00 0.000000e+00
1
Step 584000
Ar -1.300799e+00 0.000000e+00 0.000000e+00
1
Step 585000
Ar -1.255340e+00 0.000000e+00 0.000000e+00
1
Step 586000
Ar -9.488782e-01 0.000000e+00 0.000000e+00
1
Step 587000
Ar -9.633328e-01 0.000000e+00 0.000000e+00
1
Step 588000
Ar -5.275986e-01 0.000000e+00 0.000000e+00
1
Step 589000
Ar -5.612089e-01 0.000000e+00 0.000000e+00
1
Step 590000
Ar -5.503453e-01 0.000000e+00 0.000000e+00
1
Step 591000
Ar -5.383591e-01 0.000000e+00 0.000000e+00
1
Step 592000
Ar -4.784613e-01 0.000000e+00 0.000000e+00
1
Step 593000
Ar -4.789174e-01 0.000000e+00 0.000000e+00
1
Step 594000
Ar -2.937188e-01 0.000000e+00 0.000000e+00
1
Step 595000
Ar -2.917607e-01 0.000000e+00 0.000000e+00
1
Step 596000
Ar -4.239814e-01 0.000000e+00 0.000000e+00
1
Step 597000
Ar -3.767358e-01 0.000000e+00 0.000000e+00
1
Step 598000
Ar -4.008777e-01 0.000000e+00 0.000000e+00
1
Step 599000
Ar -3.178128e-01 0.000000e+00 0.000000e+00
1
Step 600000
Ar -3.000641e-01 0.000000e+00 0.000000e+00
1
Step 601000
Ar -3.413751e-01 0.000000e+00 0.000000e+00
1
Step 602000
Ar -3.524692e-01 0.000000e+00 0.000000e+00
1
Step 603000
Ar -6.925787e-02 0.000000e+00 0.000000e+00
1
Step 604000
Ar -1.873399e-02 0.000000e+00 0.000000e+00
1
Step 605000
Ar -4.456716e-02 0.000000e+00 0.000000e+00
1
Step 606000
Ar -2.823108e-02 0.000000e+00 0.000000e+00
1
Step 607000
Ar -1.057760e-01 0.000000e+00 0.000000e+00
1
Step 608000
Ar -5.403239e-02 0.000000e+00 0.000000e+00
1
Step 609000
Ar -1.464431e-01 0.000000e+00 0.000000e+00
1
Step 610000
Ar -7.686255e-02 0.000000e+00 0.000000e+00
1
Step 611000
Ar -2.384971e-01 0.000000e+00 0.000000e+00
1
Step 612000
Ar -2.476596e-01 0.000000e+00 0.000000e+00
1
Step 613000
Ar 1.980950e-02 0.000000e+00 0.000000e+00
1
Step 614000
Ar 9.274401e-03 0.000000e+00 0.000000e+00
1
Step 615000
Ar -4.983336e-03 0.000000e+00 0.000000e+00
1
Step 616000
Ar -1.091302e-01 0.000000e+00 0.000000e+00
1
Step 617000
Ar -1.338962e-01 0.000000e+00 0.000000e+00
1
Step 618000
Ar -1.119971e-01 0.000000e+00 0.000000e+00
1
Step 619000
Ar 1.095157e-01 0.000000e+00 0.000000e+00
1
Step 620000
Ar 8.466169e-02 0.000000e+00 0.000000e+00
1
Step 621000
Ar 5.109925e-02 0.000000e+00 0.000000e+00
1
Step 622000
Ar -6.020195e-02 0.000000e+00 0.000000e+00
1
Step 623000
Ar -6.562772e-02 0.000000e+00 0.000000e+00
1
Step 624000
Ar 3.029125e-01 0.000000e+00 0.000000e+00
1
Step 625000
Ar 4.042178e-01 0.000000e+00 0.000000e+00
1
Step 626000
Ar -1.280634e-02 0.000000e+00 0.000000e+00
1
Step 627000
Ar 3.665886e-02 0.000000e+00 0.000000e+00
1
Step 628000
Ar 2.641852e-03 0.000000e+00 0.000000e+00
1
Step 629000
Ar 8.233455e-02 0.000000e+00 0.000000e+00
1
Step 630000
Ar -2.567744e-02 0.000000e+00 0.000000e+00
1
Step 631000
Ar 5.770883e-02 0.000000e+00 0.000000e+00
1
Step 632000
Ar 1.754022e-02 0.000000e+00 0.000000e+00
1
Step 633000
Ar 3.092621e-02 0.000000e+00 0.000000e+00
1
Step 634000
Ar -4.294862e-02 0.000000e+00 0.000000e+00
1
Step 635000
Ar -3.414636e-02 0.000000e+00 0.000000e+00
1
Step 636000
Ar -9.154032e-02 0.000000e+00 0.000000e+00
1
Step 637000
Ar -4.159248e-01 0.000000e+00 0.000000e+00
1
Step 638000
Ar -3.670334e-01 0.000000e+00 0.000000e+00
1
Step 639000
Ar -6.584682e-01 0.000000e+00 0.000000e+00
1
Step 640000
Ar -7.382253e-01 0.000000e+00 0.000000e+00
1
Step 641000
Ar -4.423651e-01 0.000000e+00 0.000000e+00
1
Step 642000
Ar -1.823534e-01 0.000000e+00 0.000000e+00
1
Step 643000
Ar -2.290473e-01 0.000000e+00 0.000000e+00
1
Step 644000
Ar -2.182870e-01 0.000000e+00 0.000000e+00
1
Step 645000
Ar -2.007693e-01 0.000000e+00 0.000000e+00
1
Step 646000
Ar -1.922407e-01 0.000000e+00 0.000000e+00
1
Step 647000
Ar -1.635806e-01 0.000000e+00 0.000000e+00
1
Step 648000
Ar -1.382217e-01 0.000000e+00 0.000000e+00
1
Step 649000
Ar -1.261778e-01 0.000000e+00 0.000000e+00
1
Step 650000