1
Step 120000
Ar 1.006948e+00 0.000000e+00 0.000000e+00
1
Step 121000
Ar 9.851842e-01 0.000000e+00 0.000000e+00
1
Step 122000
Ar 9.259088e-01 0.000000e+00 0.000000e+00
1
Step 123000
Ar 9.475593e-01 0.000000e+00 0.000000e+00
1
Step 124000
Ar 7.969936e-01 0.000000e+00 0.000000e+00
1
Step 125000
Ar 8.111447e-01 0.000000e+00 0.000000e+00
1
Step 126000
Ar 7.197388e-01 0.000000e+00 0.000000e+00
1
Step 127000
Ar 7.426109e-01 0.000000e+00 0.000000e+00
1
Step 128000
Ar 7.720616e-01 0.000000e+00 0.000000e+00
1
Step 129000
Ar 6.401257e-01 0.000000e+00 0.000000e+00
1
Step 130000
Ar 5.920399e-01 0.000000e+00 0.000000e+00
1
Step 131000
Ar 7.255512e-01 0.000000e+00 0.000000e+00
1
Step 132000
Ar 7.090724e-01 0.000000e+00 0.000000e+00
1
Step 133000
Ar 5.998006e-01 0.000000e+00 0.000000e+00
1
Step 134000
Ar 6.897114e-01 0.000000e+00 0.000000e+00
1
Step 135000
Ar 7.471723e-01 0.000000e+00 0.000000e+00
1
Step 136000
Ar 7.341337e-01 0.000000e+00 0.000000e+00
1
Step 137000
Ar 8.508816e-01 0.000000e+00 0.000000e+00
1
Step 138000
Ar 1.003380e+00 0.000000e+00 0.000000e+00
1
Step 139000
Ar 8.470409e-01 0.000000e+00 0.000000e+00
1
Step 140000
Ar 1.070288e+00 0.000000e+00 0.000000e+00
1
Step 141000
Ar 8.677427e-01 0.000000e+00 0.000000e+00
1
Step 142000
Ar 9.124871e-01 0.000000e+00 0.000000e+00
1
Step 143000
Ar 1.034106e+00 0.000000e+00 0.000000e+00
1
Step 144000
Ar 9.984401e-01 0.000000e+00 0.000000e+00
1
Step 145000
Ar 1.064216e+00 0.000000e+00 0.000000e+00
1
Step 146000
Ar 1.053181e+00 0.000000e+00 0.000000e+00
1
Step 147000
Ar 8.725847e-01 0.000000e+00 0.000000e+00
1
Step 148000
Ar 9.391590e-01 0.000000e+00 0.000000e+00
1
Step 149000
Ar 1.005190e+00 0.000000e+00 0.000000e+00
1
Step 150000
Ar 1.079988e+00 0.000000e+00 0.000000e+00
1
Step 151000
Ar 1.112088e+00 0.000000e+00 0.000000e+00
1
Step 152000
Ar 1.121438e+00 0.000000e+00 0.000000e+00
1
Step 153000
Ar 1.139293e+00 0.000000e+00 0.000000e+00
1
Step 154000
Ar 1.120064e+00 0.000000e+00 0.000000e+00
1
Step 155000
Ar 9.693475e-01 0.000000e+00 0.000000e+00
1
Step 156000
Ar 9.993564e-01 0.000000e+00 0.000000e+00
1
Step 157000
Ar 9.788176e-01 0.000000e+00 0.000000e+00
1
Step 158000
Ar 8.371343e-01 0.000000e+00 0.000000e+00
1
Step 159000
Ar 9.685649e-01 0.000000e+00 0.000000e+00
1
Step 160000
Ar 8.879248e-01 0.000000e+00 0.000000e+00
1
Step 161000
Ar 9.189792e-01 0.000000e+00 0.000000e+00
1
Step 162000
Ar 9.912566e-01 0.000000e+00 0.000000e+00
1
Step 163000
Ar 1.003893e+00 0.000000e+00 0.000000e+00
1
Step 164000
Ar 9.390043e-01 0.000000e+00 0.000000e+00
1
Step 165000
Ar 8.447299e-01 0.000000e+00 0.000000e+00
1
Step 166000
Ar 8.758058e-01 0.000000e+00 0.000000e+00
1
Step 167000
Ar 9.759383e-01 0.000000e+00 0.000000e+00
1
Step 168000
Ar 9.369560e-01 0.000000e+00 0.000000e+00
1
Step 169000
Ar 9.107771e-01 0.000000e+00 0.000000e+00
1
Step 170000
Ar 9.553811e-01 0.000000e+00 0.000000e+00
1
Step 171000
Ar 1.003604e+00 0.000000e+00 0.000000e+00
1
Step 172000
Ar 1.029593e+00 0.000000e+00 0.000000e+00
1
Step 173000
Ar 1.053404e+00 0.000000e+00 0.000000e+00
1
Step 174000
Ar 1.033629e+00 0.000000e+00 0.000000e+00
1
Step 175000
Ar 1.029732e+00 0.000000e+00 0.000000e+00
1
Step 176000
Ar 9.557435e-01 0.000000e+00 0.000000e+00
1
Step 177000
Ar 9.391093e-01 0.000000e+00 0.000000e+00
1
Step 178000
Ar 9.213718e-01 0.000000e+00 0.000000e+00
1
Step 179000
Ar 9.267691e-01 0.000000e+00 0.000000e+00
1
Step 180000
Ar 9.621934e-01 0.000000e+00 0.000000e+00
1
Step 181000
Ar 8.745649e-01 0.000000e+00 0.000000e+00
1
Step 182000
Ar 8.589332e-01 0.000000e+00 0.000000e+00
1
Step 183000
Ar 8.394618e-01 0.000000e+00 0.000000e+00
1
Step 184000
Ar 8.967132e-01 0.000000e+00 0.000000e+00
1
Step 185000
Ar 9.906954e-01 0.000000e+00 0.000000e+00
1
Step 186000
Ar 9.017058e-01 0.000000e+00 0.000000e+00
1
Step 187000
Ar 8.634366e-01 0.000000e+00 0.000000e+00
1
Step 188000
Ar 1.040972e+00 0.000000e+00 0.000000e+00
1
Step 189000
Ar 1.035399e+00 0.000000e+00 0.000000e+00
1
Step 190000
Ar 1.034238e+00 0.000000e+00 0.000000e+00
1
Step 191000
Ar 1.034706e+00 0.000000e+00 0.000000e+00
1
Step 192000
Ar 7.993838e-01 0.000000e+00 0.000000e+00
1
Step 193000
Ar 7.948732e-01 0.000000e+00 0.000000e+00
1
Step 194000
Ar 5.189352e-01 0.000000e+00 0.000000e+00
1
Step 195000
Ar 6.449232e-01 0.000000e+00 0.000000e+00
1
Step 196000
Ar 6.111367e-01 0.000000e+00 0.000000e+00
1
Step 197000
Ar 6.391375e-01 0.000000e+00 0.000000e+00
1
Step 198000
Ar 7.773863e-01 0.000000e+00 0.000000e+00
1
Step 199000
Ar 6.784244e-01 0.000000e+00 0.000000e+00
1
Step 200000
Ar 6.990911e-01 0.000000e+00 0.000000e+00
1
Step 201000
Ar 7.474763e-01 0.000000e+00 0.000000e+00
1
Step 202000
Ar 6.839083e-01 0.000000e+00 0.000000e+00
1
Step 203000
Ar 7.481960e-01 0.000000e+00 0.000000e+00
1
Step 204000
Ar 7.910833e-01 0.000000e+00 0.000000e+00
1
Step 205000
Ar 9.980559e-01 0.000000e+00 0.000000e+00
1
Step 206000
Ar 9.309257e-01 0.000000e+00 0.000000e+00
1
Step 207000
Ar 9.449692e-01 0.000000e+00 0.000000e+00
1
Step 208000
Ar 9.355774e-01 0.000000e+00 0.000000e+00
1
Step 209000
Ar 9.600486e-01 0.000000e+00 0.000000e+00
1
Step 210000
Ar 9.603358e-01 0.000000e+00 0.000000e+00
1
Step 211000
Ar 9.630705e-01 0.000000e+00 0.000000e+00
1
Step 212000
Ar 8.911501e-01 0.000000e+00 0.000000e+00
1
Step 213000
Ar 8.885716e-01 0.000000e+00 0.000000e+00
1
Step 214000
Ar 7.749436e-01 0.000000e+00 0.000000e+00
1
Step 215000
Ar 1.118934e+00 0.000000e+00 0.000000e+00
1
Step 216000
Ar 1.123747e+00 0.000000e+00 0.000000e+00
1
Step 217000
Ar 1.119357e+00 0.000000e+00 0.000000e+00
1
Step 218000
Ar 1.128328e+00 0.000000e+00 0.000000e+00
1
Step 219000
Ar 1.119104e+00 0.000000e+00 0.000000e+00
1
Step 220000
Ar 9.674819e-01 0.000000e+00 0.000000e+00
1
Step 221000
Ar 9.708245e-01 0.000000e+00 0.000000e+00
1
Step 222000
Ar 1.075059e+00 0.000000e+00 0.000000e+00
1
Step 223000
Ar 1.049493e+00 0.000000e+00 0.000000e+00
1
Step 224000
Ar 1.056513e+00 0.000000e+00 0.000000e+00
1
Step 225000
Ar 8.728554e-01 0.000000e+00 0.000000e+00
1
Step 226000
Ar 8.986001e-01 0.000000e+00 0.000000e+00
1
Step 227000
Ar 8.777227e-01 0.000000e+00 0.000000e+00
1
Step 228000
Ar 9.055074e-01 0.000000e+00 0.000000e+00
1
Step 229000
Ar 9.364406e-01 0.000000e+00 0.000000e+00
1
Step 230000
Ar 9.669504e-01 0.000000e+00 0.000000e+00
1
Step 231000
Ar 8.361693e-01 0.000000e+00 0.000000e+00
1
Step 232000
Ar 8.680735e-01 0.000000e+00 0.000000e+00
1
Step 233000
Ar 9.296576e-01 0.000000e+00 0.000000e+00
1
Step 234000
Ar 9.384789e-01 0.000000e+00 0.000000e+00
1
Step 235000
Ar 9.010346e-01 0.000000e+00 0.000000e+00
1
Step 236000
Ar 9.038962e-01 0.000000e+00 0.000000e+00
1
Step 237000
Ar 9.324725e-01 0.000000e+00 0.000000e+00
1
Step 238000
Ar 9.099021e-01 0.000000e+00 0.000000e+00
1
Step 239000
Ar 9.329706e-01 0.000000e+00 0.000000e+00
1
Step 240000
Ar 9.395042e-01 0.000000e+00 0.000000e+00
1
Step 241000
Ar 9.280468e-01 0.000000e+00 0.000000e+00
1
Step 242000
Ar 1.160115e+00 0.000000e+00 0.000000e+00
1
Step 243000
Ar 1.149649e+00 0.000000e+00 0.000000e+00
1
Step 244000
Ar 1.155030e+00 0.000000e+00 0.000000e+00
1
Step 245000
Ar 1.123269e+00 0.000000e+00 0.000000e+00
1
Step 246000
Ar 1.133401e+00 0.000000e+00 0.000000e+00
1
Step 247000
Ar 1.126448e+00 0.000000e+00 0.000000e+00
1
Step 248000
Ar 1.129374e+00 0.000000e+00 0.000000e+00
1
Step 249000
Ar 1.109504e+00 0.000000e+00 0.000000e+00
1
Step 250000
Ar 1.237318e+00 0.000000e+00 0.000000e+00
1
Step 251000
Ar 1.213072e+00 0.000000e+00 0.000000e+00
1
Step 252000
Ar 1.219543e+00 0.000000e+00 0.000000e+00
1
Step 253000
Ar 1.206786e+00 0.000000e+00 0.000000e+00
1
Step 254000
Ar 1.211269e+00 0.000000e+00 0.000000e+00
1
Step 255000
Ar 1.204189e+00 0.000000e+00 0.000000e+00
1
Step 256000
Ar 1.212541e+00 0.000000e+00 0.000000e+00
1
Step 257000
Ar 1.281362e+00 0.000000e+00 0.000000e+00
1
Step 258000
Ar 9.021988e-01 0.000000e+00 0.000000e+00
1
Step 259000
Ar 9.020026e-01 0.000000e+00 0.000000e+00
1
Step 260000
Ar 9.072733e-01 0.000000e+00 0.000000e+00
1
Step 261000
Ar 8.965177e-01 0.000000e+00 0.000000e+00
1
Step 262000
Ar 9.018077e-01 0.000000e+00 0.000000e+00
1
Step 263000
Ar 8.699545e-01 0.000000e+00 0.000000e+00
1
Step 264000
Ar 8.768007e-01 0.000000e+00 0.000000e+00
1
Step 265000
Ar 8.464245e-01 0.000000e+00 0.000000e+00
1
Step 266000
Ar 8.814394e-01 0.000000e+00 0.000000e+00
1
Step 267000
Ar 8.972973e-01 0.000000e+00 0.000000e+00
1
Step 268000
Ar 7.386693e-01 0.000000e+00 0.000000e+00
1
Step 269000
Ar 7.490167e-01 0.000000e+00 0.000000e+00
1
Step 270000
Ar 7.540023e-01 0.000000e+00 0.000000e+00
1
Step 271000
Ar 7.390827e-01 0.000000e+00 0.000000e+00
1
Step 272000
Ar 7.332992e-01 0.000000e+00 0.000000e+00
1
Step 273000
Ar 4.272794e-01 0.000000e+00 0.000000e+00
1
Step 274000
Ar 4.784208e-01 0.000000e+00 0.000000e+00
1
Step 275000
Ar 5.529291e-01 0.000000e+00 0.000000e+00
1
Step 276000
Ar 5.717747e-01 0.000000e+00 0.000000e+00
1
Step 277000
Ar 5.708669e-01 0.000000e+00 0.000000e+00
1
Step 278000
Ar 7.452297e-01 0.000000e+00 0.000000e+00
1
Step 279000
Ar 7.448621e-01 0.000000e+00 0.000000e+00
1
Step 280000
Ar 7.381037e-01 0.000000e+00 0.000000e+00
1
Step 281000
Ar 7.483661e-01 0.000000e+00 0.000000e+00
1
Step 282000
Ar 9.251170e-01 0.000000e+00 0.000000e+00
1
Step 283000
Ar 9.575443e-01 0.000000e+00 0.000000e+00
1
Step 284000
Ar 9.696783e-01 0.000000e+00 0.000000e+00
1
Step 285000
Ar 9.454724e-01 0.000000e+00 0.000000e+00
1
Step 286000
Ar 9.422877e-01 0.000000e+00 0.000000e+00
1
Step 287000
Ar 9.380274e-01 0.000000e+00 0.000000e+00
1
Step 288000
Ar 9.384286e-01 0.000000e+00 0.000000e+00
1
Step 289000
Ar 9.393045e-01 0.000000e+00 0.000000e+00
1
Step 290000
Ar 9.657579e-01 0.000000e+00 0.000000e+00
1
Step 291000
Ar 9.330052e-01 0.000000e+00 0.000000e+00
1
Step 292000
Ar 9.390807e-01 0.000000e+00 0.000000e+00
1
Step 293000
Ar 9.498173e-01 0.000000e+00 0.000000e+00
1
Step 294000
Ar 1.013456e+00 0.000000e+00 0.000000e+00
1
Step 295000
Ar 1.052545e+00 0.000000e+00 0.000000e+00
1
Step 296000
Ar 1.191675e+00 0.000000e+00 0.000000e+00
1
Step 297000
Ar 1.193859e+00 0.000000e+00 0.000000e+00
1
Step 298000
Ar 1.220333e+00 0.000000e+00 0.000000e+00
1
Step 299000
Ar 1.189977e+00 0.000000e+00 0.000000e+00
1
Step 300000
Ar 1.187153e+00 0.000000e+00 0.000000e+00
1
Step 301000
Ar 1.182748e+00 0.000000e+00 0.000000e+00
1
Step 302000
Ar 1.116940e+00 0.000000e+00 0.000000e+00
1
Step 303000
Ar 1.131161e+00 0.000000e+00 0.000000e+00
1
Step 304000
Ar 1.122422e+00 0.000000e+00 0.000000e+00
1
Step 305000
Ar 1.128133e+00 0.000000e+00 0.000000e+00
1
Step 306000
Ar 1.128515e+00 0.000000e+00 0.000000e+00
1
Step 307000
Ar 1.131043e+00 0.000000e+00 0.000000e+00
1
Step 308000
Ar 1.076824e+00 0.000000e+00 0.000000e+00
1
Step 309000
Ar 1.080404e+00 0.000000e+00 0.000000e+00
1
Step 310000
Ar 1.136588e+00 0.000000e+00 0.000000e+00
1
Step 311000
Ar 1.127627e+00 0.000000e+00 0.000000e+00
1
Step 312000
Ar 1.089910e+00 0.000000e+00 0.000000e+00
1
Step 313000
Ar 1.133518e+00 0.000000e+00 0.000000e+00
1
Step 314000
Ar 1.127333e+00 0.000000e+00 0.000000e+00
1
Step 315000
Ar 1.132846e+00 0.000000e+00 0.000000e+00
1
Step 316000
Ar 1.075455e+00 0.000000e+00 0.000000e+00
1
Step 317000
Ar 1.125127e+00 0.000000e+00 0.000000e+00
1
Step 318000
Ar 1.128545e+00 0.000000e+00 0.000000e+00
1
Step 319000
Ar 1.127899e+00 0.000000e+00 0.000000e+00
1
Step 320000
Ar 1.124677e+00 0.000000e+00 0.000000e+00
1
Step 321000
Ar 1.077021e+00 0.000000e+00 0.000000e+00
1
Step 322000
Ar 1.229636e+00 0.000000e+00 0.000000e+00
1
Step 323000
Ar 1.217934e+00 0.000000e+00 0.000000e+00
1
Step 324000
Ar 1.225463e+00 0.000000e+00 0.000000e+00
1
Step 325000
Ar 1.216675e+00 0.000000e+00 0.000000e+00
1
Step 326000
Ar 1.222101e+00 0.000000e+00 0.000000e+00
1
Step 327000
Ar 1.217843e+00 0.000000e+00 0.000000e+00
1
Step 328000
Ar 1.227653e+00 0.000000e+00 0.000000e+00
1
Step 329000
Ar 1.227742e+00 0.000000e+00 0.000000e+00
1
Step 330000
Ar 1.228061e+00 0.000000e+00 0.000000e+00
1
Step 331000
Ar 1.231847e+00 0.000000e+00 0.000000e+00
1
Step 332000
Ar 1.218552e+00 0.000000e+00 0.000000e+00
1
Step 333000
Ar 1.224666e+00 0.000000e+00 0.000000e+00
1
Step 334000
Ar 1.223910e+00 0.000000e+00 0.000000e+00
1
Step 335000
Ar 1.271615e+00 0.000000e+00 0.000000e+00
1
Step 336000
Ar 1.268111e+00 0.000000e+00 0.000000e+00
1
Step 337000
Ar 1.289605e+00 0.000000e+00 0.000000e+00
1
Step 338000
Ar 1.222704e+00 0.000000e+00 0.000000e+00
1
Step 339000
Ar 1.220345e+00 0.000000e+00 0.000000e+00
1
Step 340000
Ar 1.221441e+00 0.000000e+00 0.000000e+00
1
Step 341000
Ar 1.227226e+00 0.000000e+00 0.000000e+00
1
Step 342000
Ar 1.224968e+00 0.000000e+00 0.000000e+00
1
Step 343000
Ar 1.223349e+00 0.000000e+00 0.000000e+00
1
Step 344000
Ar 1.220004e+00 0.000000e+00 0.000000e+00
1
Step 345000
Ar 1.311704e+00 0.000000e+00 0.000000e+00
1
Step 346000
Ar 8.940635e-01 0.000000e+00 0.000000e+00
1
Step 347000
Ar 8.650589e-01 0.000000e+00 0.000000e+00
1
Step 348000
Ar 8.947085e-01 0.000000e+00 0.000000e+00
1
Step 349000
Ar 8.996084e-01 0.000000e+00 0.000000e+00
1
Step 350000
Ar 8.647654e-01 0.000000e+00 0.000000e+00
1
Step 351000
Ar 8.579824e-01 0.000000e+00 0.000000e+00
1
Step 352000
Ar 8.666201e-01 0.000000e+00 0.000000e+00
1
Step 353000
Ar 8.623368e-01 0.000000e+00 0.000000e+00
1
Step 354000
Ar 8.656201e-01 0.000000e+00 0.000000e+00
1
Step 355000
Ar 9.612024e-01 0.000000e+00 0.000000e+00
1
Step 356000
Ar 1.029556e+00 0.000000e+00 0.000000e+00
1
Step 357000
Ar 1.002785e+00 0.000000e+00 0.000000e+00
1
Step 358000
Ar 1.030766e+00 0.000000e+00 0.000000e+00
1
Step 359000
Ar 1.011791e+00 0.000000e+00 0.000000e+00
1
Step 360000
Ar 1.000853e+00 0.000000e+00 0.000000e+00
1
Step 361000
Ar 9.980180e-01 0.000000e+00 0.000000e+00
1
Step 362000
Ar 9.837438e-01 0.000000e+00 0.000000e+00
1
Step 363000
Ar 1.004877e+00 0.000000e+00 0.000000e+00
1
Step 364000
Ar 1.013380e+00 0.000000e+00 0.000000e+00
1
Step 365000
Ar 8.642939e-01 0.000000e+00 0.000000e+00
1
Step 366000
Ar 8.739479e-01 0.000000e+00 0.000000e+00
1
Step 367000
Ar 8.680110e-01 0.000000e+00 0.000000e+00
1
Step 368000
Ar 8.783927e-01 0.000000e+00 0.000000e+00
1
Step 369000
Ar 9.671784e-01 0.000000e+00 0.000000e+00
1
Step 370000
Ar 9.676306e-01 0.000000e+00 0.000000e+00
1
Step 371000
Ar 8.593415e-01 0.000000e+00 0.000000e+00
1
Step 372000
Ar 8.495214e-01 0.000000e+00 0.000000e+00
1
Step 373000
Ar 8.925651e-01 0.000000e+00 0.000000e+00
1
Step 374000
Ar 8.589387e-01 0.000000e+00 0.000000e+00
1
Step 375000
Ar 9.157271e-01 0.000000e+00 0.000000e+00
1
Step 376000
Ar 8.790314e-01 0.000000e+00 0.000000e+00
1
Step 377000
Ar 8.601448e-01 0.000000e+00 0.000000e+00
1
Step 378000
Ar 8.569468e-01 0.000000e+00 0.000000e+00
1
Step 379000
Ar 8.463448e-01 0.000000e+00 0.000000e+00
1
Step 380000
Ar 9.041893e-01 0.000000e+00 0.000000e+00
1
Step 381000
Ar 6.435893e-01 0.000000e+00 0.000000e+00
1
Step 382000
Ar 7.257566e-01 0.000000e+00 0.000000e+00
1
Step 383000
Ar 6.992706e-01 0.000000e+00 0.000000e+00
1
Step 384000
Ar 7.054518e-01 0.000000e+00 0.000000e+00
1
Step 385000
Ar 6.781470e-01 0.000000e+00 0.000000e+00
1
Step 386000
Ar 7.029473e-01 0.000000e+00 0.000000e+00
1
Step 387000
Ar 7.000005e-01 0.000000e+00 0.000000e+00
1
Step 388000
Ar 5.938228e-01 0.000000e+00 0.000000e+00
1
Step 389000
Ar 6.229464e-01 0.000000e+00 0.000000e+00
1
Step 390000
Ar 6.293152e-01 0.000000e+00 0.000000e+00
1
Step 391000
Ar 6.238094e-01 0.000000e+00 0.000000e+00
1
Step 392000
Ar 6.325770e-01 0.000000e+00 0.000000e+00
1
Step 393000
Ar 7.490106e-01 0.000000e+00 0.000000e+00
1
Step 394000
Ar 6.743737e-01 0.000000e+00 0.000000e+00
1
Step 395000
Ar 6.641453e-01 0.000000e+00 0.000000e+00
1
Step 396000
Ar 6.953532e-01 0.000000e+00 0.000000e+00
1
Step 397000
Ar 7.193989e-01 0.000000e+00 0.000000e+00
1
Step 398000
Ar 7.150837e-01 0.000000e+00 0.000000e+00
1
Step 399000
Ar 6.377380e-01 0.000000e+00 0.000000e+00
1
Step 400000
Ar 6.308088e-01 0.000000e+00 0.000000e+00
1
Step 401000
Ar 6.345491e-01 0.000000e+00 0.000000e+00
1
Step 402000
Ar 6.262009e-01 0.000000e+00 0.000000e+00
1
Step 403000
Ar 6.393855e-01 0.000000e+00 0.000000e+00
1
Step 404000
Ar 6.295794e-01 0.000000e+00 0.000000e+00
1
Step 405000
Ar 6.343670e-01 0.000000e+00 0.000000e+00
1
Step 406000
Ar 6.316210e-01 0.000000e+00 0.000000e+00
1
Step 407000
Ar 6.810336e-01 0.000000e+00 0.000000e+00
1
Step 408000
Ar 7.046506e-01 0.000000e+00 0.000000e+00
1
Step 409000
Ar 6.993329e-01 0.000000e+00 0.000000e+00
1
Step 410000
Ar 7.036062e-01 0.000000e+00 0.000000e+00
1
Step 411000
Ar 7.247483e-01 0.000000e+00 0.000000e+00
1
Step 412000
Ar 7.534714e-01 0.000000e+00 0.000000e+00
1
Step 413000
Ar 7.499024e-01 0.000000e+00 0.000000e+00
1
Step 414000
Ar 7.448072e-01 0.000000e+00 0.000000e+00
1
Step 415000
Ar 7.542892e-01 0.000000e+00 0.000000e+00
1
Step 416000
Ar 7.700521e-01 0.000000e+00 0.000000e+00
1
Step 417000
Ar 7.554430e-01 0.000000e+00 0.000000e+00
1
Step 418000
Ar 6.789135e-01 0.000000e+00 0.000000e+00
1
Step 419000
Ar 6.798693e-01 0.000000e+00 0.000000e+00
1
Step 420000
Ar 6.793821e-01 0.000000e+00 0.000000e+00
1
Step 421000
Ar 5.395170e-01 0.000000e+00 0.000000e+00
1
Step 422000
Ar 5.212132e-01 0.000000e+00 0.000000e+00
1
Step 423000
Ar 4.692189e-01 0.000000e+00 0.000000e+00
1
Step 424000
Ar 1.046263e-02 0.000000e+00 0.000000e+00
1
Step 425000
Ar -9.244314e-01 0.000000e+00 0.000000e+00
1
Step 426000
Ar -8.536985e-01 0.000000e+00 0.000000e+00
1
Step 427000
Ar -9.443305e-01 0.000000e+00 0.000000e+00
1
Step 428000
Ar -9.172956e-01 0.000000e+00 0.000000e+00
1
Step 429000
Ar -9.391681e-01 0.000000e+00 0.000000e+00
1
Step 430000
Ar -9.117935e-01 0.000000e+00 0.000000e+00
1
Step 431000
Ar -9.070443e-01 0.000000e+00 0.000000e+00
1
Step 432000
Ar -9.150895e-01 0.000000e+00 0.000000e+00
1
Step 433000
Ar -9.597457e-01 0.000000e+00 0.000000e+00
1
Step 434000
Ar -1.083485e+00 0.000000e+00 0.000000e+00
1
Step 435000
Ar -1.013768e+00 0.000000e+00 0.000000e+00
1
Step 436000
Ar -1.014695e+00 0.000000e+00 0.000000e+00
1
Step 437000
Ar -1.019119e+00 0.000000e+00 0.000000e+00
1
Step 438000
Ar -1.042552e+00 0.000000e+00 0.000000e+00
1
Step 439000
Ar -1.035988e+00 0.000000e+00 0.000000e+00
1
Step 440000
Ar -1.050658e+00 0.000000e+00 0.000000e+00
1
Step 441000
Ar -1.039057e+00 0.000000e+00 0.000000e+00
1
Step 442000
Ar -1.040575e+00 0.000000e+00 0.000000e+00
1
Step 443000
Ar -1.018038e+00 0.000000e+00 0.000000e+00
1
Step 444000
Ar -1.232285e+00 0.000000e+00 0.000000e+00
1
Step 445000
Ar -1.195508e+00 0.000000e+00 0.000000e+00
1
Step 446000
Ar -1.165222e+00 0.000000e+00 0.000000e+00
1
Step 447000
Ar -1.174385e+00 0.000000e+00 0.000000e+00
1
Step 448000
Ar -1.094547e+00 0.000000e+00 0.000000e+00
1
Step 449000
Ar -8.564071e-01 0.000000e+00 0.000000e+00
1
Step 450000
Ar -8.292090e-01 0.000000e+00 0.000000e+00
1
Step 451000
Ar -8.751931e-01 0.000000e+00 0.000000e+00
1
Step 452000
Ar -8.504710e-01 0.000000e+00 0.000000e+00
1
Step 453000
Ar -8.473312e-01 0.000000e+00 0.000000e+00
1
Step 454000
Ar -8.397326e-01 0.000000e+00 0.000000e+00
1
Step 455000
Ar -8.789062e-01 0.000000e+00 0.000000e+00
1
Step 456000
Ar -8.541324e-01 0.000000e+00 0.000000e+00
1
Step 457000
Ar -8.370729e-01 0.000000e+00 0.000000e+00
1
Step 458000
Ar -8.584404e-01 0.000000e+00 0.000000e+00
1
Step 459000
Ar -8.571273e-01 0.000000e+00 0.000000e+00
1
Step 460000
Ar -8.315579e-01 0.000000e+00 0.000000e+00
1
Step 461000
Ar -8.565269e-01 0.000000e+00 0.000000e+00
1
Step 462000
Ar -8.345432e-01 0.000000e+00 0.000000e+00
1
Step 463000
Ar -7.291578e-01 0.000000e+00 0.000000e+00
1
Step 464000
Ar -7.282038e-01 0.000000e+00 0.000000e+00
1
Step 465000
Ar -8.063193e-01 0.000000e+00 0.000000e+00
1
Step 466000
Ar -8.059636e-01 0.000000e+00 0.000000e+00
1
Step 467000
Ar -7.968015e-01 0.000000e+00 0.000000e+00
1
Step 468000
Ar -7.972958e-01 0.000000e+00 0.000000e+00
1
Step 469000
Ar -7.456186e-01 0.000000e+00 0.000000e+00
1
Step 470000
Ar -7.263389e-01 0.000000e+00 0.000000e+00
1
Step 471000
Ar -7.899847e-01 0.000000e+00 0.000000e+00
1
Step 472000
Ar -8.558536e-01 0.000000e+00 0.000000e+00
1
Step 473000
Ar -8.433301e-01 0.000000e+00 0.000000e+00
1
Step 474000
Ar -8.434353e-01 0.000000e+00 0.000000e+00
1
Step 475000
Ar -8.082468e-01 0.000000e+00 0.000000e+00
1
Step 476000
Ar -7.667243e-01 0.000000e+00 0.000000e+00
1
Step 477000
Ar -7.832885e-01 0.000000e+00 0.000000e+00
1
Step 478000
Ar -8.572406e-01 0.000000e+00 0.000000e+00
1
Step 479000
Ar -8.288214e-01 0.000000e+00 0.000000e+00
1
Step 480000
Ar -9.542823e-01 0.000000e+00 0.000000e+00
1
Step 481000
Ar -8.973612e-01 0.000000e+00 0.000000e+00
1
Step 482000
Ar -9.146486e-01 0.000000e+00 0.000000e+00
1
Step 483000
Ar -9.114044e-01 0.000000e+00 0.000000e+00
1
Step 484000
Ar -7.965601e-01 0.000000e+00 0.000000e+00
1
Step 485000
Ar -7.956519e-01 0.000000e+00 0.000000e+00
1
Step 486000
Ar -7.740004e-01 0.000000e+00 0.000000e+00
1
Step 487000
Ar -7.433216e-01 0.000000e+00 0.000000e+00
1
Step 488000
Ar -7.217848e-01 0.000000e+00 0.000000e+00
1
Step 489000
Ar -7.753974e-01 0.000000e+00 0.000000e+00
1
Step 490000
Ar -8.798799e-01 0.000000e+00 0.000000e+00
1
Step 491000
Ar -9.475881e-01 0.000000e+00 0.000000e+00
1
Step 492000
Ar -7.660347e-01 0.000000e+00 0.000000e+00
1
Step 493000
Ar -7.732160e-01 0.000000e+00 0.000000e+00
1
Step 494000
Ar -7.708166e-01 0.000000e+00 0.000000e+00
1
Step 495000
Ar -7.479061e-01 0.000000e+00 0.000000e+00
1
Step 496000
Ar -7.697813e-01 0.000000e+00 0.000000e+00
1
Step 497000
Ar -7.338971e-01 0.000000e+00 0.000000e+00
1
Step 498000
Ar -7.738923e-01 0.000000e+00 0.000000e+00
1
Step 499000
Ar -7.358035e-01 0.000000e+00 0.000000e+00
1
Step 500000
Ar -7.486229e-01 0.000000e+00 0.000000e+00
1
Step 501000
Ar -8.815331e-01 0.000000e+00 0.000000e+00
1
Step 502000
Ar -9.028541e-01 0.000000e+00 0.000000e+00
1
Step 503000
Ar -8.962802e-01 0.000000e+00 0.000000e+00
1
Step 504000
Ar -9.522958e-01 0.000000e+00 0.000000e+00
1
Step 505000
Ar -9.423344e-01 0.000000e+00 0.000000e+00
1
Step 506000
Ar -9.498975e-01 0.000000e+00 0.000000e+00
1
Step 507000
Ar -9.491711e-01 0.000000e+00 0.000000e+00
1
Step 508000
Ar -9.006123e-01 0.000000e+00 0.000000e+00
1
Step 509000
Ar -1.008155e+00 0.000000e+00 0.000000e+00
1
Step 510000
Ar -1.041542e+00 0.000000e+00 0.000000e+00
1
Step 511000
Ar -1.029761e+00 0.000000e+00 0.000000e+00
1
Step 512000
Ar -1.012198e+00 0.000000e+00 0.000000e+00
1
Step 513000
Ar -1.008744e+00 0.000000e+00 0.000000e+00
1
Step 514000
Ar -1.054322e+00 0.000000e+00 0.000000e+00
1
Step 515000
Ar -1.064009e+00 0.000000e+00 0.000000e+00
1
Step 516000
Ar -1.029704e+00 0.000000e+00 0.000000e+00
1
Step 517000
Ar -1.001246e+00 0.000000e+00 0.000000e+00
1
Step 518000
Ar -1.057240e+00 0.000000e+00 0.000000e+00
1
Step 519000
Ar -1.047037e+00 0.000000e+00 0.000000e+00
1
Step 520000
Ar -1.042424e+00 0.000000e+00 0.000000e+00
1
Step 521000
Ar -1.085083e+00 0.000000e+00 0.000000e+00
1
Step 522000
Ar -1.118959e+00 0.000000e+00 0.000000e+00
1
Step 523000
Ar -1.093571e+00 0.000000e+00 0.000000e+00
1
Step 524000
Ar -1.100705e+00 0.000000e+00 0.000000e+00
1
Step 525000
Ar -1.061830e+00 0.000000e+00 0.000000e+00
1
Step 526000
Ar -1.060929e+00 0.000000e+00 0.000000e+00
1
Step 527000
Ar -1.199008e+00 0.000000e+00 0.000000e+00
1
Step 528000
Ar -1.204947e+00 0.000000e+00 0.000000e+00
1
Step 529000
Ar -1.194658e+00 0.000000e+00 0.000000e+00
1
Step 530000
Ar -1.190512e+00 0.000000e+00 0.000000e+00
1
Step 531000
Ar -1.203162e+00 0.000000e+00 0.000000e+00
1
Step 532000
Ar -1.159385e+00 0.000000e+00 0.000000e+00
1
Step 533000
Ar -1.150793e+00 0.000000e+00 0.000000e+00
1
Step 534000
Ar -1.287872e+00 0.000000e+00 0.000000e+00
1
Step 535000
Ar -1.283987e+00 0.000000e+00 0.000000e+00
1
Step 536000
Ar -1.192243e+00 0.000000e+00 0.000000e+00
1
Step 537000
Ar -1.192135e+00 0.000000e+00 0.000000e+00
1
Step 538000
Ar -1.247827e+00 0.000000e+00 0.000000e+00
1
Step 539000
Ar -1.195663e+00 0.000000e+00 0.000000e+00
1
Step 540000
Ar -1.149875e+00 0.000000e+00 0.000000e+00
1
Step 541000
Ar -1.042309e+00 0.000000e+00 0.000000e+00
1
Step 542000
Ar -1.046171e+00 0.000000e+00 0.000000e+00
1
Step 543000
Ar -1.044298e+00 0.000000e+00 0.000000e+00
1
Step 544000
Ar -1.033816e+00 0.000000e+00 0.000000e+00
1
Step 545000
Ar -1.051355e+00 0.000000e+00 0.000000e+00
1
Step 546000
Ar -1.036688e+00 0.000000e+00 0.000000e+00
1
Step 547000
Ar -1.015623e+00 0.000000e+00 0.000000e+00
1
Step 548000
Ar -1.010490e+00 0.000000e+00 0.000000e+00
1
Step 549000
Ar -1.008817e+00 0.000000e+00 0.000000e+00
1
Step 550000
Ar -1.115648e+00 0.000000e+00 0.000000e+00
1
Step 551000
Ar -1.112894e+00 0.000000e+00 0.000000e+00
1
Step 552000
Ar -1.119376e+00 0.000000e+00 0.000000e+00
1
Step 553000
Ar -1.101538e+00 0.000000e+00 0.000000e+00
1
Step 554000
Ar -1.097505e+00 0.000000e+00 0.000000e+00
1
Step 555000
Ar -1.013064e+00 0.000000e+00 0.000000e+00
1
Step 556000
Ar -1.035892e+00 0.000000e+00 0.000000e+00
1
Step 557000
Ar -8.765591e-01 0.000000e+00 0.000000e+00
1
Step 558000
Ar -8.788620e-01 0.000000e+00 0.000000e+00
1
Step 559000
Ar -8.295479e-01 0.000000e+00 0.000000e+00
1
Step 560000
Ar -8.299852e-01 0.000000e+00 0.000000e+00
1
Step 561000
Ar -9.346822e-01 0.000000e+00 0.000000e+00
1
Step 562000
Ar -6.482428e-01 0.000000e+00 0.000000e+00
1
Step 563000
Ar -6.957718e-01 0.000000e+00 0.000000e+00
1
Step 564000
Ar -6.470648e-01 0.000000e+00 0.000000e+00
1
Step 565000
Ar -6.370883e-01 0.000000e+00 0.000000e+00
1
Step 566000
Ar -6.650005e-01 0.000000e+00 0.000000e+00
1
Step 567000
Ar -6.595199e-01 0.000000e+00 0.000000e+00
1
Step 568000
Ar -6.362513e-01 0.000000e+00 0.000000e+00
1
Step 569000
Ar -6.584528e-01 0.000000e+00 0.000000e+00
1
Step 570000
Ar -5.428744e-01 0.000000e+00 0.000000e+00
1
Step 571000
Ar -6.698579e-01 0.000000e+00 0.000000e+00
1
Step 572000
Ar -6.297472e-01 0.000000e+00 0.000000e+00
1
Step 573000
Ar -5.964469e-01 0.000000e+00 0.000000e+00
1
Step 574000
Ar -6.423340e-01 0.000000e+00 0.000000e+00
1
Step 575000
Ar -6.482977e-01 0.000000e+00 0.000000e+00
1
Step 576000
Ar -6.466751e-01 0.000000e+00 0.000000e+00
1
Step 577000
Ar -5.826955e-01 0.000000e+00 0.000000e+00
1
Step 578000
Ar -5.733729e-01 0.000000e+00 0.000000e+00
1
Step 579000
Ar -5.645777e-01 0.000000e+00 0.000000e+00
1
Step 580000
Ar -5.684075e-01 0.000000e+00 0.000000e+00
1
Step 581000
Ar -5.760572e-01 0.000000e+00 0.000000e+00
1
Step 582000
Ar -4.862645e-01 0.000000e+00 0.000000e+00
1
Step 583000
Ar -5.230133e-01 0.000000e+00 0.000000e+00
1
Step 584000
Ar -8.721976e-01 0.000000e+00 0.000000e+00
1
Step 585000
Ar -7.289739e-01 0.000000e+00 0.000000e+00
1
Step 586000
Ar -7.606237e-01 0.000000e+00 0.000000e+00
1
Step 587000
Ar -6.992320e-01 0.000000e+00 0.000000e+00
1
Step 588000
Ar -6.478982e-01 0.000000e+00 0.000000e+00
1
Step 589000
Ar -6.420556e-01 0.000000e+00 0.000000e+00
1
Step 590000
Ar -6.447037e-01 0.000000e+00 0.000000e+00
1
Step 591000
Ar -6.172586e-01 0.000000e+00 0.000000e+00
1
Step 592000
Ar -6.155897e-01 0.000000e+00 0.000000e+00
1
Step 593000
Ar -6.384207e-01 0.000000e+00 0.000000e+00
1
Step 594000
Ar 3.550083e-01 0.000000e+00 0.000000e+00
1
Step 595000
Ar 4.679948e-01 0.000000e+00 0.000000e+00
1
Step 596000
Ar 4.471772e-01 0.000000e+00 0.000000e+00
1
Step 597000
Ar 4.743068e-01 0.000000e+00 0.000000e+00
1
Step 598000
Ar 4.537648e-01 0.000000e+00 0.000000e+00
1
Step 599000
Ar 2.369086e-01 0.000000e+00 0.000000e+00
1
Step 600000
Ar 4.773305e-01 0.000000e+00 0.000000e+00
1
Step 601000
Ar 3.411802e-01 0.000000e+00 0.000000e+00
1
Step 602000
Ar 5.939404e-01 0.000000e+00 0.000000e+00
1
Step 603000
Ar 5.401073e-01 0.000000e+00 0.000000e+00
1
Step 604000
Ar 5.325519e-01 0.000000e+00 0.000000e+00
1
Step 605000
Ar 5.346985e-01 0.000000e+00 0.000000e+00
1
Step 606000
Ar 5.152563e-01 0.000000e+00 0.000000e+00
1
Step 607000
Ar 5.694095e-01 0.000000e+00 0.000000e+00
1
Step 608000
Ar 5.960226e-01 0.000000e+00 0.000000e+00
1
Step 609000
Ar 5.994698e-01 0.000000e+00 0.000000e+00
1
Step 610000
Ar 5.264194e-01 0.000000e+00 0.000000e+00
1
Step 611000
Ar 5.306774e-01 0.000000e+00 0.000000e+00
1
Step 612000
Ar 4.799883e-01 0.000000e+00 0.000000e+00
1
Step 613000
Ar 4.866590e-01 0.000000e+00 0.000000e+00
1
Step 614000
Ar 4.027965e-01 0.000000e+00 0.000000e+00
1
Step 615000
Ar 2.164931e-01 0.000000e+00 0.000000e+00
1
Step 616000
Ar 4.212684e-01 0.000000e+00 0.000000e+00
1
Step 617000
Ar 4.156078e-01 0.000000e+00 0.000000e+00
1
Step 618000
Ar 2.691431e-01 0.000000e+00 0.000000e+00
1
Step 619000
Ar 3.885048e-01 0.000000e+00 0.000000e+00
1
Step 620000
Ar 1.476902e-01 0.000000e+00 0.000000e+00
1
Step 621000
Ar 4.275023e-01 0.000000e+00 0.000000e+00
1
Step 622000
Ar 3.682910e-01 0.000000e+00 0.000000e+00
1
Step 623000
Ar 3.597024e-01 0.000000e+00 0.000000e+00
1
Step 624000
Ar 3.778447e-01 0.000000e+00 0.000000e+00
1
Step 625000
Ar 3.028724e-01 0.000000e+00 0.000000e+00
1
Step 626000
Ar 4.041553e-01 0.000000e+00 0.000000e+00
1
Step 627000
Ar 3.891748e-01 0.000000e+00 0.000000e+00
1
Step 628000
Ar 3.831395e-01 0.000000e+00 0.000000e+00
1
Step 629000
Ar 3.161799e-01 0.000000e+00 0.000000e+00
1
Step 630000
Ar 3.294763e-01 0.000000e+00 0.000000e+00
1
Step 631000
Ar 3.172316e-01 0.000000e+00 0.000000e+00
1
Step 632000
Ar 3.041385e-01 0.000000e+00 0.000000e+00
1
Step 633000
Ar 3.330938e-01 0.000000e+00 0.000000e+00
1
Step 634000
Ar 2.650723e-01 0.000000e+00 0.000000e+00
1
Step 635000
Ar 2.513882e-01 0.000000e+00 0.000000e+00
1
Step 636000
Ar 2.599907e-01 0.000000e+00 0.000000e+00
1
Step 637000
Ar 2.628555e-01 0.000000e+00 0.000000e+00
1
Step 638000
Ar 2.627407e-01 0.000000e+00 0.000000e+00
1
Step 639000
Ar 2.620257e-01 0.000000e+00 0.000000e+00
1
Step 640000
Ar 2.499716e-01 0.000000e+00 0.000000e+00
1
Step 641000
Ar 2.651074e-01 0.000000e+00 0.000000e+00
1
Step 642000
Ar 2.460249e-01 0.000000e+00 0.000000e+00
1
Step 643000
Ar 2.626255e-01 0.000000e+00 0.000000e+00
1
Step 644000
Ar 2.425000e-01 0.000000e+00 0.000000e+00
1
Step 645000
Ar 2.998702e-01 0.000000e+00 0.000000e+00
1
Step 646000
Ar 3.335448e-01 0.000000e+00 0.000000e+00
1
Step 647000
Ar 3.268013e-01 0.000000e+00 0.000000e+00
1
Step 648000
Ar 3.245406e-01 0.000000e+00 0.000000e+00
1
Step 649000
Ar 3.148832e-01 0.000000e+00 0.000000e+00
1
Step 650000
Ar 3.549851e-01 0.000000e+00 0.000000e+00
1
Step 651000
Ar 3.633843e-01 0.000000e+00 0.000000e+00
1
Step 652000