1
Step 120000
Ar 9.614607e-01 0.000000e+00 0.000000e+00
1
Step 121000
Ar 9.781566e-01 0.000000e+00 0.000000e+00
1
Step 122000
Ar 1.089724e+00 0.000000e+00 0.000000e+00
1
Step 123000
Ar 7.545925e-01 0.000000e+00 0.000000e+00
1
Step 124000
Ar 1.103469e+00 0.000000e+00 0.000000e+00
1
Step 125000
Ar 1.029031e+00 0.000000e+00 0.000000e+00
1
Step 126000
Ar 9.295308e-01 0.000000e+00 0.000000e+00
1
Step 127000
Ar 8.575016e-01 0.000000e+00 0.000000e+00
1
Step 128000
Ar 8.159146e-01 0.000000e+00 0.000000e+00
1
Step 129000
Ar 9.314098e-01 0.000000e+00 0.000000e+00
1
Step 130000
Ar 8.509980e-01 0.000000e+00 0.000000e+00
1
Step 131000
Ar 9.916830e-01 0.000000e+00 0.000000e+00
1
Step 132000
Ar 9.870014e-01 0.000000e+00 0.000000e+00
1
Step 133000
Ar 8.897833e-01 0.000000e+00 0.000000e+00
1
Step 134000
Ar 9.007689e-01 0.000000e+00 0.000000e+00
1
Step 135000
Ar 9.940987e-01 0.000000e+00 0.000000e+00
1
Step 136000
Ar 1.012802e+00 0.000000e+00 0.000000e+00
1
Step 137000
Ar 1.005265e+00 0.000000e+00 0.000000e+00
1
Step 138000
Ar 1.012001e+00 0.000000e+00 0.000000e+00
1
Step 139000
Ar 1.010783e+00 0.000000e+00 0.000000e+00
1
Step 140000
Ar 1.016785e+00 0.000000e+00 0.000000e+00
1
Step 141000
Ar 9.109170e-01 0.000000e+00 0.000000e+00
1
Step 142000
Ar 8.944313e-01 0.000000e+00 0.000000e+00
1
Step 143000
Ar 8.873275e-01 0.000000e+00 0.000000e+00
1
Step 144000
Ar 9.295493e-01 0.000000e+00 0.000000e+00
1
Step 145000
Ar 9.702535e-01 0.000000e+00 0.000000e+00
1
Step 146000
Ar 9.512333e-01 0.000000e+00 0.000000e+00
1
Step 147000
Ar 9.159753e-01 0.000000e+00 0.000000e+00
1
Step 148000
Ar 9.417633e-01 0.000000e+00 0.000000e+00
1
Step 149000
Ar 8.962141e-01 0.000000e+00 0.000000e+00
1
Step 150000
Ar 8.655749e-01 0.000000e+00 0.000000e+00
1
Step 151000
Ar 7.922601e-01 0.000000e+00 0.000000e+00
1
Step 152000
Ar 8.229547e-01 0.000000e+00 0.000000e+00
1
Step 153000
Ar 8.152994e-01 0.000000e+00 0.000000e+00
1
Step 154000
Ar 7.945372e-01 0.000000e+00 0.000000e+00
1
Step 155000
Ar 7.808733e-01 0.000000e+00 0.000000e+00
1
Step 156000
Ar 7.369937e-01 0.000000e+00 0.000000e+00
1
Step 157000
Ar 6.577676e-01 0.000000e+00 0.000000e+00
1
Step 158000
Ar 6.066598e-01 0.000000e+00 0.000000e+00
1
Step 159000
Ar 6.710053e-01 0.000000e+00 0.000000e+00
1
Step 160000
Ar 7.110771e-01 0.000000e+00 0.000000e+00
1
Step 161000
Ar 1.049947e+00 0.000000e+00 0.000000e+00
1
Step 162000
Ar 1.119299e+00 0.000000e+00 0.000000e+00
1
Step 163000
Ar 1.056875e+00 0.000000e+00 0.000000e+00
1
Step 164000
Ar 1.047112e+00 0.000000e+00 0.000000e+00
1
Step 165000
Ar 1.083300e+00 0.000000e+00 0.000000e+00
1
Step 166000
Ar 1.061645e+00 0.000000e+00 0.000000e+00
1
Step 167000
Ar 1.060462e+00 0.000000e+00 0.000000e+00
1
Step 168000
Ar 1.049038e+00 0.000000e+00 0.000000e+00
1
Step 169000
Ar 1.058364e+00 0.000000e+00 0.000000e+00
1
Step 170000
Ar 1.062469e+00 0.000000e+00 0.000000e+00
1
Step 171000
Ar 1.039858e+00 0.000000e+00 0.000000e+00
1
Step 172000
Ar 1.041452e+00 0.000000e+00 0.000000e+00
1
Step 173000
Ar 1.042512e+00 0.000000e+00 0.000000e+00
1
Step 174000
Ar 1.043565e+00 0.000000e+00 0.000000e+00
1
Step 175000
Ar 1.045360e+00 0.000000e+00 0.000000e+00
1
Step 176000
Ar 9.054282e-01 0.000000e+00 0.000000e+00
1
Step 177000
Ar 9.288839e-01 0.000000e+00 0.000000e+00
1
Step 178000
Ar 8.825018e-01 0.000000e+00 0.000000e+00
1
Step 179000
Ar 9.221451e-01 0.000000e+00 0.000000e+00
1
Step 180000
Ar 9.411519e-01 0.000000e+00 0.000000e+00
1
Step 181000
Ar 9.195480e-01 0.000000e+00 0.000000e+00
1
Step 182000
Ar 9.051270e-01 0.000000e+00 0.000000e+00
1
Step 183000
Ar 8.797921e-01 0.000000e+00 0.000000e+00
1
Step 184000
Ar 9.140952e-01 0.000000e+00 0.000000e+00
1
Step 185000
Ar 9.253367e-01 0.000000e+00 0.000000e+00
1
Step 186000
Ar 8.993569e-01 0.000000e+00 0.000000e+00
1
Step 187000
Ar 9.010143e-01 0.000000e+00 0.000000e+00
1
Step 188000
Ar 8.931675e-01 0.000000e+00 0.000000e+00
1
Step 189000
Ar 9.102773e-01 0.000000e+00 0.000000e+00
1
Step 190000
Ar 8.787337e-01 0.000000e+00 0.000000e+00
1
Step 191000
Ar 8.945448e-01 0.000000e+00 0.000000e+00
1
Step 192000
Ar 8.969353e-01 0.000000e+00 0.000000e+00
1
Step 193000
Ar 9.045430e-01 0.000000e+00 0.000000e+00
1
Step 194000
Ar 8.993160e-01 0.000000e+00 0.000000e+00
1
Step 195000
Ar 9.000838e-01 0.000000e+00 0.000000e+00
1
Step 196000
Ar 9.105803e-01 0.000000e+00 0.000000e+00
1
Step 197000
Ar 9.109473e-01 0.000000e+00 0.000000e+00
1
Step 198000
Ar 9.081377e-01 0.000000e+00 0.000000e+00
1
Step 199000
Ar 9.201952e-01 0.000000e+00 0.000000e+00
1
Step 200000
Ar 9.107901e-01 0.000000e+00 0.000000e+00
1
Step 201000
Ar 1.163327e+00 0.000000e+00 0.000000e+00
1
Step 202000
Ar 1.171312e+00 0.000000e+00 0.000000e+00
1
Step 203000
Ar 1.193001e+00 0.000000e+00 0.000000e+00
1
Step 204000
Ar 1.237103e+00 0.000000e+00 0.000000e+00
1
Step 205000
Ar 1.122626e+00 0.000000e+00 0.000000e+00
1
Step 206000
Ar 1.007336e+00 0.000000e+00 0.000000e+00
1
Step 207000
Ar 1.001874e+00 0.000000e+00 0.000000e+00
1
Step 208000
Ar 1.005050e+00 0.000000e+00 0.000000e+00
1
Step 209000
Ar 1.004780e+00 0.000000e+00 0.000000e+00
1
Step 210000
Ar 1.008231e+00 0.000000e+00 0.000000e+00
1
Step 211000
Ar 9.586271e-01 0.000000e+00 0.000000e+00
1
Step 212000
Ar 9.544486e-01 0.000000e+00 0.000000e+00
1
Step 213000
Ar 9.568005e-01 0.000000e+00 0.000000e+00
1
Step 214000
Ar 9.578539e-01 0.000000e+00 0.000000e+00
1
Step 215000
Ar 9.591227e-01 0.000000e+00 0.000000e+00
1
Step 216000
Ar 8.122915e-01 0.000000e+00 0.000000e+00
1
Step 217000
Ar 7.945642e-01 0.000000e+00 0.000000e+00
1
Step 218000
Ar 7.993084e-01 0.000000e+00 0.000000e+00
1
Step 219000
Ar 8.053436e-01 0.000000e+00 0.000000e+00
1
Step 220000
Ar 8.299123e-01 0.000000e+00 0.000000e+00
1
Step 221000
Ar 6.297664e-01 0.000000e+00 0.000000e+00
1
Step 222000
Ar 6.086056e-01 0.000000e+00 0.000000e+00
1
Step 223000
Ar 6.742612e-01 0.000000e+00 0.000000e+00
1
Step 224000
Ar 5.332845e-01 0.000000e+00 0.000000e+00
1
Step 225000
Ar 6.964860e-01 0.000000e+00 0.000000e+00
1
Step 226000
Ar 7.643472e-01 0.000000e+00 0.000000e+00
1
Step 227000
Ar 7.359487e-01 0.000000e+00 0.000000e+00
1
Step 228000
Ar 7.330764e-01 0.000000e+00 0.000000e+00
1
Step 229000
Ar 7.456485e-01 0.000000e+00 0.000000e+00
1
Step 230000
Ar 7.638452e-01 0.000000e+00 0.000000e+00
1
Step 231000
Ar 8.893266e-01 0.000000e+00 0.000000e+00
1
Step 232000
Ar 8.879637e-01 0.000000e+00 0.000000e+00
1
Step 233000
Ar 8.866331e-01 0.000000e+00 0.000000e+00
1
Step 234000
Ar 8.885830e-01 0.000000e+00 0.000000e+00
1
Step 235000
Ar 8.891855e-01 0.000000e+00 0.000000e+00
1
Step 236000
Ar 7.287198e-01 0.000000e+00 0.000000e+00
1
Step 237000
Ar 7.437163e-01 0.000000e+00 0.000000e+00
1
Step 238000
Ar 7.286620e-01 0.000000e+00 0.000000e+00
1
Step 239000
Ar 7.450425e-01 0.000000e+00 0.000000e+00
1
Step 240000
Ar 7.258660e-01 0.000000e+00 0.000000e+00
1
Step 241000
Ar 1.139607e+00 0.000000e+00 0.000000e+00
1
Step 242000
Ar 1.225148e+00 0.000000e+00 0.000000e+00
1
Step 243000
Ar 1.155758e+00 0.000000e+00 0.000000e+00
1
Step 244000
Ar 1.156618e+00 0.000000e+00 0.000000e+00
1
Step 245000
Ar 1.137731e+00 0.000000e+00 0.000000e+00
1
Step 246000
Ar 1.163414e+00 0.000000e+00 0.000000e+00
1
Step 247000
Ar 1.172831e+00 0.000000e+00 0.000000e+00
1
Step 248000
Ar 1.194214e+00 0.000000e+00 0.000000e+00
1
Step 249000
Ar 1.157301e+00 0.000000e+00 0.000000e+00
1
Step 250000
Ar 1.275978e+00 0.000000e+00 0.000000e+00
1
Step 251000
Ar 1.151759e+00 0.000000e+00 0.000000e+00
1
Step 252000
Ar 1.202648e+00 0.000000e+00 0.000000e+00
1
Step 253000
Ar 1.187478e+00 0.000000e+00 0.000000e+00
1
Step 254000
Ar 1.174243e+00 0.000000e+00 0.000000e+00
1
Step 255000
Ar 1.151839e+00 0.000000e+00 0.000000e+00
1
Step 256000
Ar 1.214062e+00 0.000000e+00 0.000000e+00
1
Step 257000
Ar 1.202359e+00 0.000000e+00 0.000000e+00
1
Step 258000
Ar 1.169852e+00 0.000000e+00 0.000000e+00
1
Step 259000
Ar 1.195762e+00 0.000000e+00 0.000000e+00
1
Step 260000
Ar 1.235364e+00 0.000000e+00 0.000000e+00
1
Step 261000
Ar 1.189446e+00 0.000000e+00 0.000000e+00
1
Step 262000
Ar 1.177885e+00 0.000000e+00 0.000000e+00
1
Step 263000
Ar 1.206768e+00 0.000000e+00 0.000000e+00
1
Step 264000
Ar 1.189237e+00 0.000000e+00 0.000000e+00
1
Step 265000
Ar 1.195749e+00 0.000000e+00 0.000000e+00
1
Step 266000
Ar 1.165888e+00 0.000000e+00 0.000000e+00
1
Step 267000
Ar 1.165343e+00 0.000000e+00 0.000000e+00
1
Step 268000
Ar 1.177317e+00 0.000000e+00 0.000000e+00
1
Step 269000
Ar 1.174158e+00 0.000000e+00 0.000000e+00
1
Step 270000
Ar 1.166955e+00 0.000000e+00 0.000000e+00
1
Step 271000
Ar 1.180965e+00 0.000000e+00 0.000000e+00
1
Step 272000
Ar 1.183432e+00 0.000000e+00 0.000000e+00
1
Step 273000
Ar 1.178237e+00 0.000000e+00 0.000000e+00
1
Step 274000
Ar 1.183415e+00 0.000000e+00 0.000000e+00
1
Step 275000
Ar 1.180723e+00 0.000000e+00 0.000000e+00
1
Step 276000
Ar 1.098648e+00 0.000000e+00 0.000000e+00
1
Step 277000
Ar 1.097050e+00 0.000000e+00 0.000000e+00
1
Step 278000
Ar 1.096269e+00 0.000000e+00 0.000000e+00
1
Step 279000
Ar 1.105065e+00 0.000000e+00 0.000000e+00
1
Step 280000
Ar 1.098903e+00 0.000000e+00 0.000000e+00
1
Step 281000
Ar 1.109654e+00 0.000000e+00 0.000000e+00
1
Step 282000
Ar 1.112479e+00 0.000000e+00 0.000000e+00
1
Step 283000
Ar 1.105436e+00 0.000000e+00 0.000000e+00
1
Step 284000
Ar 1.116566e+00 0.000000e+00 0.000000e+00
1
Step 285000
Ar 1.108385e+00 0.000000e+00 0.000000e+00
1
Step 286000
Ar 1.262698e+00 0.000000e+00 0.000000e+00
1
Step 287000
Ar 1.261570e+00 0.000000e+00 0.000000e+00
1
Step 288000
Ar 1.256422e+00 0.000000e+00 0.000000e+00
1
Step 289000
Ar 1.252443e+00 0.000000e+00 0.000000e+00
1
Step 290000
Ar 1.257290e+00 0.000000e+00 0.000000e+00
1
Step 291000
Ar 1.218829e+00 0.000000e+00 0.000000e+00
1
Step 292000
Ar 1.211951e+00 0.000000e+00 0.000000e+00
1
Step 293000
Ar 1.214209e+00 0.000000e+00 0.000000e+00
1
Step 294000
Ar 1.223409e+00 0.000000e+00 0.000000e+00
1
Step 295000
Ar 1.212098e+00 0.000000e+00 0.000000e+00
1
Step 296000
Ar 9.271732e-01 0.000000e+00 0.000000e+00
1
Step 297000
Ar 8.102138e-01 0.000000e+00 0.000000e+00
1
Step 298000
Ar 7.952854e-01 0.000000e+00 0.000000e+00
1
Step 299000
Ar 7.990470e-01 0.000000e+00 0.000000e+00
1
Step 300000
Ar 7.982234e-01 0.000000e+00 0.000000e+00
1
Step 301000
Ar 8.115462e-01 0.000000e+00 0.000000e+00
1
Step 302000
Ar 8.180498e-01 0.000000e+00 0.000000e+00
1
Step 303000
Ar 8.162148e-01 0.000000e+00 0.000000e+00
1
Step 304000
Ar 8.135646e-01 0.000000e+00 0.000000e+00
1
Step 305000
Ar 8.088243e-01 0.000000e+00 0.000000e+00
1
Step 306000
Ar 8.424505e-01 0.000000e+00 0.000000e+00
1
Step 307000
Ar 1.184963e+00 0.000000e+00 0.000000e+00
1
Step 308000
Ar 1.296636e+00 0.000000e+00 0.000000e+00
1
Step 309000
Ar 1.291080e+00 0.000000e+00 0.000000e+00
1
Step 310000
Ar 1.310887e+00 0.000000e+00 0.000000e+00
1
Step 311000
Ar 1.327569e+00 0.000000e+00 0.000000e+00
1
Step 312000
Ar 1.358916e+00 0.000000e+00 0.000000e+00
1
Step 313000
Ar 1.356468e+00 0.000000e+00 0.000000e+00
1
Step 314000
Ar 1.370044e+00 0.000000e+00 0.000000e+00
1
Step 315000
Ar 1.324363e+00 0.000000e+00 0.000000e+00
1
Step 316000
Ar 1.298712e+00 0.000000e+00 0.000000e+00
1
Step 317000
Ar 1.294598e+00 0.000000e+00 0.000000e+00
1
Step 318000
Ar 1.293329e+00 0.000000e+00 0.000000e+00
1
Step 319000
Ar 1.287452e+00 0.000000e+00 0.000000e+00
1
Step 320000
Ar 1.299182e+00 0.000000e+00 0.000000e+00
1
Step 321000
Ar -1.011306e+00 0.000000e+00 0.000000e+00
1
Step 322000
Ar -8.341987e-01 0.000000e+00 0.000000e+00
1
Step 323000
Ar -1.086795e+00 0.000000e+00 0.000000e+00
1
Step 324000
Ar -1.049527e+00 0.000000e+00 0.000000e+00
1
Step 325000
Ar -1.208787e+00 0.000000e+00 0.000000e+00
1
Step 326000
Ar -1.012426e+00 0.000000e+00 0.000000e+00
1
Step 327000
Ar -9.085866e-01 0.000000e+00 0.000000e+00
1
Step 328000
Ar -1.032283e+00 0.000000e+00 0.000000e+00
1
Step 329000
Ar -9.769736e-01 0.000000e+00 0.000000e+00
1
Step 330000
Ar -1.061590e+00 0.000000e+00 0.000000e+00
1
Step 331000
Ar -9.881029e-01 0.000000e+00 0.000000e+00
1
Step 332000
Ar -6.928859e-01 0.000000e+00 0.000000e+00
1
Step 333000
Ar -9.201363e-01 0.000000e+00 0.000000e+00
1
Step 334000
Ar -9.534079e-01 0.000000e+00 0.000000e+00
1
Step 335000
Ar -1.011850e+00 0.000000e+00 0.000000e+00
1
Step 336000
Ar -9.978998e-01 0.000000e+00 0.000000e+00
1
Step 337000
Ar -8.751161e-01 0.000000e+00 0.000000e+00
1
Step 338000
Ar -8.389316e-01 0.000000e+00 0.000000e+00
1
Step 339000
Ar -8.657980e-01 0.000000e+00 0.000000e+00
1
Step 340000
Ar -8.733259e-01 0.000000e+00 0.000000e+00
1
Step 341000
Ar -6.664084e-01 0.000000e+00 0.000000e+00
1
Step 342000
Ar -8.442130e-01 0.000000e+00 0.000000e+00
1
Step 343000
Ar -7.842073e-01 0.000000e+00 0.000000e+00
1
Step 344000
Ar -8.153061e-01 0.000000e+00 0.000000e+00
1
Step 345000
Ar -8.049884e-01 0.000000e+00 0.000000e+00
1
Step 346000
Ar -7.935264e-01 0.000000e+00 0.000000e+00
1
Step 347000
Ar -7.801234e-01 0.000000e+00 0.000000e+00
1
Step 348000
Ar -7.287965e-01 0.000000e+00 0.000000e+00
1
Step 349000
Ar -4.942313e-01 0.000000e+00 0.000000e+00
1
Step 350000
Ar -7.599113e-01 0.000000e+00 0.000000e+00
1
Step 351000
Ar -8.235840e-01 0.000000e+00 0.000000e+00
1
Step 352000
Ar -8.241739e-01 0.000000e+00 0.000000e+00
1
Step 353000
Ar -8.304349e-01 0.000000e+00 0.000000e+00
1
Step 354000
Ar -8.201011e-01 0.000000e+00 0.000000e+00
1
Step 355000
Ar -8.574307e-01 0.000000e+00 0.000000e+00
1
Step 356000
Ar -8.363047e-01 0.000000e+00 0.000000e+00
1
Step 357000
Ar -8.340517e-01 0.000000e+00 0.000000e+00
1
Step 358000
Ar -8.228712e-01 0.000000e+00 0.000000e+00
1
Step 359000
Ar -8.482640e-01 0.000000e+00 0.000000e+00
1
Step 360000
Ar -8.340645e-01 0.000000e+00 0.000000e+00
1
Step 361000
Ar -8.191536e-01 0.000000e+00 0.000000e+00
1
Step 362000
Ar -8.197137e-01 0.000000e+00 0.000000e+00
1
Step 363000
Ar -8.199250e-01 0.000000e+00 0.000000e+00
1
Step 364000
Ar -8.231876e-01 0.000000e+00 0.000000e+00
1
Step 365000
Ar -8.219529e-01 0.000000e+00 0.000000e+00
1
Step 366000
Ar -9.732959e-01 0.000000e+00 0.000000e+00
1
Step 367000
Ar -9.806097e-01 0.000000e+00 0.000000e+00
1
Step 368000
Ar -9.058664e-01 0.000000e+00 0.000000e+00
1
Step 369000
Ar -9.779111e-01 0.000000e+00 0.000000e+00
1
Step 370000
Ar -9.955214e-01 0.000000e+00 0.000000e+00
1
Step 371000
Ar -9.283989e-01 0.000000e+00 0.000000e+00
1
Step 372000
Ar -9.090834e-01 0.000000e+00 0.000000e+00
1
Step 373000
Ar -9.422053e-01 0.000000e+00 0.000000e+00
1
Step 374000
Ar -9.679704e-01 0.000000e+00 0.000000e+00
1
Step 375000
Ar -9.358649e-01 0.000000e+00 0.000000e+00
1
Step 376000
Ar -9.555717e-01 0.000000e+00 0.000000e+00
1
Step 377000
Ar -9.813219e-01 0.000000e+00 0.000000e+00
1
Step 378000
Ar -9.522103e-01 0.000000e+00 0.000000e+00
1
Step 379000
Ar -9.647857e-01 0.000000e+00 0.000000e+00
1
Step 380000
Ar -9.506231e-01 0.000000e+00 0.000000e+00
1
Step 381000
Ar -9.793609e-01 0.000000e+00 0.000000e+00
1
Step 382000
Ar -9.637749e-01 0.000000e+00 0.000000e+00
1
Step 383000
Ar -9.735086e-01 0.000000e+00 0.000000e+00
1
Step 384000
Ar -9.794836e-01 0.000000e+00 0.000000e+00
1
Step 385000
Ar -9.629366e-01 0.000000e+00 0.000000e+00
1
Step 386000
Ar -1.078998e+00 0.000000e+00 0.000000e+00
1
Step 387000
Ar -1.114643e+00 0.000000e+00 0.000000e+00
1
Step 388000
Ar -1.101553e+00 0.000000e+00 0.000000e+00
1
Step 389000
Ar -1.112382e+00 0.000000e+00 0.000000e+00
1
Step 390000
Ar -1.095009e+00 0.000000e+00 0.000000e+00
1
Step 391000
Ar -1.124144e+00 0.000000e+00 0.000000e+00
1
Step 392000
Ar -1.162920e+00 0.000000e+00 0.000000e+00
1
Step 393000
Ar -1.121597e+00 0.000000e+00 0.000000e+00
1
Step 394000
Ar -1.132254e+00 0.000000e+00 0.000000e+00
1
Step 395000
Ar -1.109655e+00 0.000000e+00 0.000000e+00
1
Step 396000
Ar -1.139290e+00 0.000000e+00 0.000000e+00
1
Step 397000
Ar -1.142540e+00 0.000000e+00 0.000000e+00
1
Step 398000
Ar -1.141115e+00 0.000000e+00 0.000000e+00
1
Step 399000
Ar -1.123698e+00 0.000000e+00 0.000000e+00
1
Step 400000
Ar -1.135428e+00 0.000000e+00 0.000000e+00
1
Step 401000
Ar -1.158180e+00 0.000000e+00 0.000000e+00
1
Step 402000
Ar -1.169216e+00 0.000000e+00 0.000000e+00
1
Step 403000
Ar -1.158019e+00 0.000000e+00 0.000000e+00
1
Step 404000
Ar -1.191579e+00 0.000000e+00 0.000000e+00
1
Step 405000
Ar -1.196770e+00 0.000000e+00 0.000000e+00
1
Step 406000
Ar -1.174692e+00 0.000000e+00 0.000000e+00
1
Step 407000
Ar -1.165206e+00 0.000000e+00 0.000000e+00
1
Step 408000
Ar -1.158400e+00 0.000000e+00 0.000000e+00
1
Step 409000
Ar -1.173363e+00 0.000000e+00 0.000000e+00
1
Step 410000
Ar -1.174594e+00 0.000000e+00 0.000000e+00
1
Step 411000
Ar -1.185417e+00 0.000000e+00 0.000000e+00
1
Step 412000
Ar -1.185480e+00 0.000000e+00 0.000000e+00
1
Step 413000
Ar -1.186059e+00 0.000000e+00 0.000000e+00
1
Step 414000
Ar -1.187816e+00 0.000000e+00 0.000000e+00
1
Step 415000
Ar -1.186855e+00 0.000000e+00 0.000000e+00
1
Step 416000
Ar -1.305893e+00 0.000000e+00 0.000000e+00
1
Step 417000
Ar -1.222689e+00 0.000000e+00 0.000000e+00
1
Step 418000
Ar -1.290950e+00 0.000000e+00 0.000000e+00
1
Step 419000
Ar -1.317457e+00 0.000000e+00 0.000000e+00
1
Step 420000
Ar -1.269832e+00 0.000000e+00 0.000000e+00
1
Step 421000
Ar -1.307338e+00 0.000000e+00 0.000000e+00
1
Step 422000
Ar -1.294622e+00 0.000000e+00 0.000000e+00
1
Step 423000
Ar -1.290606e+00 0.000000e+00 0.000000e+00
1
Step 424000
Ar -1.386483e+00 0.000000e+00 0.000000e+00
1
Step 425000
Ar -1.276829e+00 0.000000e+00 0.000000e+00
1
Step 426000
Ar -1.304615e+00 0.000000e+00 0.000000e+00
1
Step 427000
Ar -1.324531e+00 0.000000e+00 0.000000e+00
1
Step 428000
Ar -1.323819e+00 0.000000e+00 0.000000e+00
1
Step 429000
Ar -1.297621e+00 0.000000e+00 0.000000e+00
1
Step 430000
Ar -1.295783e+00 0.000000e+00 0.000000e+00
1
Step 431000
Ar -1.311942e+00 0.000000e+00 0.000000e+00
1
Step 432000
Ar -1.312779e+00 0.000000e+00 0.000000e+00
1
Step 433000
Ar -1.315690e+00 0.000000e+00 0.000000e+00
1
Step 434000
Ar -1.307757e+00 0.000000e+00 0.000000e+00
1
Step 435000
Ar -1.325340e+00 0.000000e+00 0.000000e+00
1
Step 436000
Ar -1.360615e+00 0.000000e+00 0.000000e+00
1
Step 437000
Ar -1.350397e+00 0.000000e+00 0.000000e+00
1
Step 438000
Ar -1.357997e+00 0.000000e+00 0.000000e+00
1
Step 439000
Ar -1.336373e+00 0.000000e+00 0.000000e+00
1
Step 440000
Ar -1.344034e+00 0.000000e+00 0.000000e+00
1
Step 441000
Ar -1.379425e+00 0.000000e+00 0.000000e+00
1
Step 442000
Ar -1.359283e+00 0.000000e+00 0.000000e+00
1
Step 443000
Ar -1.371937e+00 0.000000e+00 0.000000e+00
1
Step 444000
Ar -1.360950e+00 0.000000e+00 0.000000e+00
1
Step 445000
Ar -1.400750e+00 0.000000e+00 0.000000e+00
1
Step 446000
Ar -1.308422e+00 0.000000e+00 0.000000e+00
1
Step 447000
Ar -1.305776e+00 0.000000e+00 0.000000e+00
1
Step 448000
Ar -1.308986e+00 0.000000e+00 0.000000e+00
1
Step 449000
Ar -1.311746e+00 0.000000e+00 0.000000e+00
1
Step 450000
Ar -1.308603e+00 0.000000e+00 0.000000e+00
1
Step 451000
Ar -1.362493e+00 0.000000e+00 0.000000e+00
1
Step 452000
Ar -1.361559e+00 0.000000e+00 0.000000e+00
1
Step 453000
Ar -1.366789e+00 0.000000e+00 0.000000e+00
1
Step 454000
Ar -1.361092e+00 0.000000e+00 0.000000e+00
1
Step 455000
Ar -1.354320e+00 0.000000e+00 0.000000e+00
1
Step 456000
Ar -1.366997e+00 0.000000e+00 0.000000e+00
1
Step 457000
Ar -1.372292e+00 0.000000e+00 0.000000e+00
1
Step 458000
Ar -1.382797e+00 0.000000e+00 0.000000e+00
1
Step 459000
Ar -1.373244e+00 0.000000e+00 0.000000e+00
1
Step 460000
Ar -1.373810e+00 0.000000e+00 0.000000e+00
1
Step 461000
Ar -1.286159e+00 0.000000e+00 0.000000e+00
1
Step 462000
Ar -1.332378e+00 0.000000e+00 0.000000e+00
1
Step 463000
Ar -1.454532e+00 0.000000e+00 0.000000e+00
1
Step 464000
Ar -1.419175e+00 0.000000e+00 0.000000e+00
1
Step 465000
Ar -1.443278e+00 0.000000e+00 0.000000e+00
1
Step 466000
Ar -1.422289e+00 0.000000e+00 0.000000e+00
1
Step 467000
Ar -1.423603e+00 0.000000e+00 0.000000e+00
1
Step 468000
Ar -1.409569e+00 0.000000e+00 0.000000e+00
1
Step 469000
Ar -1.413835e+00 0.000000e+00 0.000000e+00
1
Step 470000
Ar -1.419438e+00 0.000000e+00 0.000000e+00
1
Step 471000
Ar -1.427277e+00 0.000000e+00 0.000000e+00
1
Step 472000
Ar -1.426341e+00 0.000000e+00 0.000000e+00
1
Step 473000
Ar -1.429803e+00 0.000000e+00 0.000000e+00
1
Step 474000
Ar -1.430849e+00 0.000000e+00 0.000000e+00
1
Step 475000
Ar -1.430210e+00 0.000000e+00 0.000000e+00
1
Step 476000
Ar -1.466419e+00 0.000000e+00 0.000000e+00
1
Step 477000
Ar -1.476332e+00 0.000000e+00 0.000000e+00
1
Step 478000
Ar -1.463591e+00 0.000000e+00 0.000000e+00
1
Step 479000
Ar -1.467821e+00 0.000000e+00 0.000000e+00
1
Step 480000
Ar -1.471356e+00 0.000000e+00 0.000000e+00
1
Step 481000
Ar -1.363792e+00 0.000000e+00 0.000000e+00
1
Step 482000
Ar -1.362117e+00 0.000000e+00 0.000000e+00
1
Step 483000
Ar -1.365066e+00 0.000000e+00 0.000000e+00
1
Step 484000
Ar -1.363031e+00 0.000000e+00 0.000000e+00
1
Step 485000
Ar -1.360548e+00 0.000000e+00 0.000000e+00
1
Step 486000
Ar -1.498676e+00 0.000000e+00 0.000000e+00
1
Step 487000
Ar -1.502643e+00 0.000000e+00 0.000000e+00
1
Step 488000
Ar -1.490326e+00 0.000000e+00 0.000000e+00
1
Step 489000
Ar -1.486070e+00 0.000000e+00 0.000000e+00
1
Step 490000
Ar -1.483204e+00 0.000000e+00 0.000000e+00
1
Step 491000
Ar -1.495858e+00 0.000000e+00 0.000000e+00
1
Step 492000
Ar -1.506470e+00 0.000000e+00 0.000000e+00
1
Step 493000
Ar -1.499416e+00 0.000000e+00 0.000000e+00
1
Step 494000
Ar -1.508460e+00 0.000000e+00 0.000000e+00
1
Step 495000
Ar -1.502178e+00 0.000000e+00 0.000000e+00
1
Step 496000
Ar -1.389174e+00 0.000000e+00 0.000000e+00
1
Step 497000
Ar -1.386698e+00 0.000000e+00 0.000000e+00
1
Step 498000
Ar -1.385483e+00 0.000000e+00 0.000000e+00
1
Step 499000
Ar -1.385135e+00 0.000000e+00 0.000000e+00
1
Step 500000
Ar -1.390665e+00 0.000000e+00 0.000000e+00
1
Step 501000
Ar -1.461553e+00 0.000000e+00 0.000000e+00
1
Step 502000
Ar -1.453866e+00 0.000000e+00 0.000000e+00
1
Step 503000
Ar -1.458463e+00 0.000000e+00 0.000000e+00
1
Step 504000
Ar -1.456320e+00 0.000000e+00 0.000000e+00
1
Step 505000
Ar -1.459297e+00 0.000000e+00 0.000000e+00
1
Step 506000
Ar -6.614138e-01 0.000000e+00 0.000000e+00
1
Step 507000
Ar -7.333218e-01 0.000000e+00 0.000000e+00
1
Step 508000
Ar -6.790824e-01 0.000000e+00 0.000000e+00
1
Step 509000
Ar -7.368280e-01 0.000000e+00 0.000000e+00
1
Step 510000
Ar -7.066365e-01 0.000000e+00 0.000000e+00
1
Step 511000
Ar -6.690401e-01 0.000000e+00 0.000000e+00
1
Step 512000
Ar -5.985292e-01 0.000000e+00 0.000000e+00
1
Step 513000
Ar -6.912260e-01 0.000000e+00 0.000000e+00
1
Step 514000
Ar -5.366372e-01 0.000000e+00 0.000000e+00
1
Step 515000
Ar -6.085033e-01 0.000000e+00 0.000000e+00
1
Step 516000
Ar -5.649940e-01 0.000000e+00 0.000000e+00
1
Step 517000
Ar -5.922127e-01 0.000000e+00 0.000000e+00
1
Step 518000
Ar -5.494486e-01 0.000000e+00 0.000000e+00
1
Step 519000
Ar -5.967721e-01 0.000000e+00 0.000000e+00
1
Step 520000
Ar -4.794451e-01 0.000000e+00 0.000000e+00
1
Step 521000
Ar 4.017906e-01 0.000000e+00 0.000000e+00
1
Step 522000
Ar 6.471237e-01 0.000000e+00 0.000000e+00
1
Step 523000
Ar 6.511447e-01 0.000000e+00 0.000000e+00
1
Step 524000
Ar 6.420977e-01 0.000000e+00 0.000000e+00
1
Step 525000
Ar 6.378201e-01 0.000000e+00 0.000000e+00
1
Step 526000
Ar -4.125085e-01 0.000000e+00 0.000000e+00
1
Step 527000
Ar -3.674974e-01 0.000000e+00 0.000000e+00
1
Step 528000
Ar -3.745655e-01 0.000000e+00 0.000000e+00
1
Step 529000
Ar -2.776839e-01 0.000000e+00 0.000000e+00
1
Step 530000
Ar -4.133837e-01 0.000000e+00 0.000000e+00
1
Step 531000
Ar -5.588562e-01 0.000000e+00 0.000000e+00
1
Step 532000
Ar -4.920302e-01 0.000000e+00 0.000000e+00
1
Step 533000
Ar -5.809734e-01 0.000000e+00 0.000000e+00
1
Step 534000
Ar -5.650132e-01 0.000000e+00 0.000000e+00
1
Step 535000
Ar -5.917679e-01 0.000000e+00 0.000000e+00
1
Step 536000
Ar -5.135805e-01 0.000000e+00 0.000000e+00
1
Step 537000
Ar -5.523509e-01 0.000000e+00 0.000000e+00
1
Step 538000
Ar -5.409527e-01 0.000000e+00 0.000000e+00
1
Step 539000
Ar -5.203660e-01 0.000000e+00 0.000000e+00
1
Step 540000
Ar -5.348316e-01 0.000000e+00 0.000000e+00
1
Step 541000
Ar -5.136090e-01 0.000000e+00 0.000000e+00
1
Step 542000
Ar -5.190166e-01 0.000000e+00 0.000000e+00
1
Step 543000
Ar -5.078209e-01 0.000000e+00 0.000000e+00
1
Step 544000
Ar -4.982125e-01 0.000000e+00 0.000000e+00
1
Step 545000
Ar -4.931695e-01 0.000000e+00 0.000000e+00
1
Step 546000
Ar -5.620785e-01 0.000000e+00 0.000000e+00
1
Step 547000
Ar -5.707470e-01 0.000000e+00 0.000000e+00
1
Step 548000
Ar -5.772507e-01 0.000000e+00 0.000000e+00
1
Step 549000
Ar -5.630117e-01 0.000000e+00 0.000000e+00
1
Step 550000
Ar -5.636810e-01 0.000000e+00 0.000000e+00
1
Step 551000
Ar -7.734241e-01 0.000000e+00 0.000000e+00
1
Step 552000
Ar -7.879282e-01 0.000000e+00 0.000000e+00
1
Step 553000
Ar -7.869646e-01 0.000000e+00 0.000000e+00
1
Step 554000
Ar -7.793416e-01 0.000000e+00 0.000000e+00
1
Step 555000
Ar -7.754196e-01 0.000000e+00 0.000000e+00
1
Step 556000
Ar -7.932423e-01 0.000000e+00 0.000000e+00
1
Step 557000
Ar -7.889152e-01 0.000000e+00 0.000000e+00
1
Step 558000
Ar -7.893195e-01 0.000000e+00 0.000000e+00
1
Step 559000
Ar -7.845294e-01 0.000000e+00 0.000000e+00
1
Step 560000
Ar -7.886612e-01 0.000000e+00 0.000000e+00
1
Step 561000
Ar -1.079104e+00 0.000000e+00 0.000000e+00
1
Step 562000
Ar -1.081136e+00 0.000000e+00 0.000000e+00
1
Step 563000
Ar -1.078047e+00 0.000000e+00 0.000000e+00
1
Step 564000
Ar -1.077671e+00 0.000000e+00 0.000000e+00
1
Step 565000
Ar -1.078548e+00 0.000000e+00 0.000000e+00
1
Step 566000
Ar -1.250610e+00 0.000000e+00 0.000000e+00
1
Step 567000
Ar -1.245185e+00 0.000000e+00 0.000000e+00
1
Step 568000
Ar -1.234099e+00 0.000000e+00 0.000000e+00
1
Step 569000
Ar -1.231309e+00 0.000000e+00 0.000000e+00
1
Step 570000
Ar -1.233284e+00 0.000000e+00 0.000000e+00
1
Step 571000
Ar -1.247094e+00 0.000000e+00 0.000000e+00
1
Step 572000
Ar -1.250588e+00 0.000000e+00 0.000000e+00
1
Step 573000
Ar -1.246533e+00 0.000000e+00 0.000000e+00
1
Step 574000
Ar -1.251341e+00 0.000000e+00 0.000000e+00
1
Step 575000
Ar -1.253451e+00 0.000000e+00 0.000000e+00
1
Step 576000
Ar -8.479926e-01 0.000000e+00 0.000000e+00
1
Step 577000
Ar -8.473187e-01 0.000000e+00 0.000000e+00
1
Step 578000
Ar -8.505432e-01 0.000000e+00 0.000000e+00
1
Step 579000
Ar -8.453203e-01 0.000000e+00 0.000000e+00
1
Step 580000
Ar -8.485167e-01 0.000000e+00 0.000000e+00
1
Step 581000
Ar -7.287747e-01 0.000000e+00 0.000000e+00
1
Step 582000
Ar -7.406859e-01 0.000000e+00 0.000000e+00
1
Step 583000
Ar -7.488152e-01 0.000000e+00 0.000000e+00
1
Step 584000
Ar -7.288119e-01 0.000000e+00 0.000000e+00
1
Step 585000
Ar -7.257173e-01 0.000000e+00 0.000000e+00
1
Step 586000
Ar -6.878478e-01 0.000000e+00 0.000000e+00
1
Step 587000
Ar -6.745687e-01 0.000000e+00 0.000000e+00
1
Step 588000
Ar -6.772358e-01 0.000000e+00 0.000000e+00
1
Step 589000
Ar -6.593403e-01 0.000000e+00 0.000000e+00
1
Step 590000
Ar -6.594864e-01 0.000000e+00 0.000000e+00
1
Step 591000
Ar -6.871681e-01 0.000000e+00 0.000000e+00
1
Step 592000
Ar -6.972884e-01 0.000000e+00 0.000000e+00
1
Step 593000
Ar -6.808716e-01 0.000000e+00 0.000000e+00
1
Step 594000
Ar -6.879978e-01 0.000000e+00 0.000000e+00
1
Step 595000
Ar -6.805838e-01 0.000000e+00 0.000000e+00
1
Step 596000
Ar -6.946324e-01 0.000000e+00 0.000000e+00
1
Step 597000
Ar -6.952325e-01 0.000000e+00 0.000000e+00
1
Step 598000
Ar -6.937570e-01 0.000000e+00 0.000000e+00
1
Step 599000
Ar -6.921394e-01 0.000000e+00 0.000000e+00
1
Step 600000
Ar -6.942269e-01 0.000000e+00 0.000000e+00
1
Step 601000
Ar -5.169354e-01 0.000000e+00 0.000000e+00
1
Step 602000
Ar -5.213933e-01 0.000000e+00 0.000000e+00
1
Step 603000
Ar -5.212753e-01 0.000000e+00 0.000000e+00
1
Step 604000
Ar -5.185135e-01 0.000000e+00 0.000000e+00
1
Step 605000
Ar -5.163097e-01 0.000000e+00 0.000000e+00
1
Step 606000
Ar -6.271099e-01 0.000000e+00 0.000000e+00
1
Step 607000
Ar -6.298051e-01 0.000000e+00 0.000000e+00
1
Step 608000
Ar -6.408988e-01 0.000000e+00 0.000000e+00
1
Step 609000
Ar -6.372621e-01 0.000000e+00 0.000000e+00
1
Step 610000
Ar -6.273554e-01 0.000000e+00 0.000000e+00
1
Step 611000
Ar -6.451275e-01 0.000000e+00 0.000000e+00
1
Step 612000
Ar -6.488309e-01 0.000000e+00 0.000000e+00
1
Step 613000
Ar -6.432644e-01 0.000000e+00 0.000000e+00
1
Step 614000
Ar -6.452134e-01 0.000000e+00 0.000000e+00
1
Step 615000
Ar -6.429847e-01 0.000000e+00 0.000000e+00
1
Step 616000
Ar -5.482176e-01 0.000000e+00 0.000000e+00
1
Step 617000
Ar -5.491607e-01 0.000000e+00 0.000000e+00
1
Step 618000
Ar -5.530264e-01 0.000000e+00 0.000000e+00
1
Step 619000
Ar -5.524256e-01 0.000000e+00 0.000000e+00
1
Step 620000
Ar -5.491407e-01 0.000000e+00 0.000000e+00
1
Step 621000
Ar -5.069053e-01 0.000000e+00 0.000000e+00
1
Step 622000
Ar -5.049074e-01 0.000000e+00 0.000000e+00
1
Step 623000
Ar -5.034940e-01 0.000000e+00 0.000000e+00
1
Step 624000
Ar -5.065678e-01 0.000000e+00 0.000000e+00
1
Step 625000
Ar -5.036148e-01 0.000000e+00 0.000000e+00
1
Step 626000
Ar -1.040134e+00 0.000000e+00 0.000000e+00
1
Step 627000
Ar -1.038995e+00 0.000000e+00 0.000000e+00
1
Step 628000
Ar -1.029119e+00 0.000000e+00 0.000000e+00
1
Step 629000
Ar -1.035663e+00 0.000000e+00 0.000000e+00
1
Step 630000
Ar -1.022168e+00 0.000000e+00 0.000000e+00
1
Step 631000
Ar -1.041561e+00 0.000000e+00 0.000000e+00
1
Step 632000
Ar -1.042937e+00 0.000000e+00 0.000000e+00
1
Step 633000
Ar -1.040395e+00 0.000000e+00 0.000000e+00
1
Step 634000
Ar -1.038571e+00 0.000000e+00 0.000000e+00
1
Step 635000
Ar -1.040068e+00 0.000000e+00 0.000000e+00
1
Step 636000
Ar -9.224208e-01 0.000000e+00 0.000000e+00
1
Step 637000
Ar -9.110269e-01 0.000000e+00 0.000000e+00
1
Step 638000
Ar -9.059575e-01 0.000000e+00 0.000000e+00
1
Step 639000
Ar -9.089047e-01 0.000000e+00 0.000000e+00
1
Step 640000
Ar -8.961531e-01 0.000000e+00 0.000000e+00
1
Step 641000
Ar -9.165904e-01 0.000000e+00 0.000000e+00
1
Step 642000
Ar -9.258445e-01 0.000000e+00 0.000000e+00
1
Step 643000
Ar -9.152738e-01 0.000000e+00 0.000000e+00
1
Step 644000
Ar -9.162442e-01 0.000000e+00 0.000000e+00
1
Step 645000
Ar -9.136461e-01 0.000000e+00 0.000000e+00
1
Step 646000
Ar -9.275261e-01 0.000000e+00 0.000000e+00
1
Step 647000
Ar -9.230866e-01 0.000000e+00 0.000000e+00
1
Step 648000
Ar -9.277347e-01 0.000000e+00 0.000000e+00
1
Step 649000