1
Step 120000
Ar 1.006948e+00 0.000000e+00 0.000000e+00
1
Step 121000
Ar 9.851842e-01 0.000000e+00 0.000000e+00
1
Step 122000
Ar 9.259088e-01 0.000000e+00 0.000000e+00
1
Step 123000
Ar 9.475593e-01 0.000000e+00 0.000000e+00
1
Step 124000
Ar 7.969936e-01 0.000000e+00 0.000000e+00
1
Step 125000
Ar 8.111447e-01 0.000000e+00 0.000000e+00
1
Step 126000
Ar 7.756909e-01 0.000000e+00 0.000000e+00
1
Step 127000
Ar 7.176097e-01 0.000000e+00 0.000000e+00
1
Step 128000
Ar 7.807336e-01 0.000000e+00 0.000000e+00
1
Step 129000
Ar 7.628511e-01 0.000000e+00 0.000000e+00
1
Step 130000
Ar 7.816580e-01 0.000000e+00 0.000000e+00
1
Step 131000
Ar 7.962093e-01 0.000000e+00 0.000000e+00
1
Step 132000
Ar 7.836932e-01 0.000000e+00 0.000000e+00
1
Step 133000
Ar 7.612125e-01 0.000000e+00 0.000000e+00
1
Step 134000
Ar 7.657355e-01 0.000000e+00 0.000000e+00
1
Step 135000
Ar 7.941823e-01 0.000000e+00 0.000000e+00
1
Step 136000
Ar 7.814118e-01 0.000000e+00 0.000000e+00
1
Step 137000
Ar 1.057947e+00 0.000000e+00 0.000000e+00
1
Step 138000
Ar 1.014253e+00 0.000000e+00 0.000000e+00
1
Step 139000
Ar 8.811215e-01 0.000000e+00 0.000000e+00
1
Step 140000
Ar 1.070452e+00 0.000000e+00 0.000000e+00
1
Step 141000
Ar 8.685396e-01 0.000000e+00 0.000000e+00
1
Step 142000
Ar 9.118381e-01 0.000000e+00 0.000000e+00
1
Step 143000
Ar 1.082867e+00 0.000000e+00 0.000000e+00
1
Step 144000
Ar 1.038394e+00 0.000000e+00 0.000000e+00
1
Step 145000
Ar 1.040372e+00 0.000000e+00 0.000000e+00
1
Step 146000
Ar 1.056245e+00 0.000000e+00 0.000000e+00
1
Step 147000
Ar 1.012700e+00 0.000000e+00 0.000000e+00
1
Step 148000
Ar 9.369676e-01 0.000000e+00 0.000000e+00
1
Step 149000
Ar 1.003387e+00 0.000000e+00 0.000000e+00
1
Step 150000
Ar 9.609725e-01 0.000000e+00 0.000000e+00
1
Step 151000
Ar 1.035149e+00 0.000000e+00 0.000000e+00
1
Step 152000
Ar 1.034539e+00 0.000000e+00 0.000000e+00
1
Step 153000
Ar 1.031268e+00 0.000000e+00 0.000000e+00
1
Step 154000
Ar 1.034520e+00 0.000000e+00 0.000000e+00
1
Step 155000
Ar 1.038765e+00 0.000000e+00 0.000000e+00
1
Step 156000
Ar 1.096465e+00 0.000000e+00 0.000000e+00
1
Step 157000
Ar 1.088228e+00 0.000000e+00 0.000000e+00
1
Step 158000
Ar 1.093436e+00 0.000000e+00 0.000000e+00
1
Step 159000
Ar 1.090751e+00 0.000000e+00 0.000000e+00
1
Step 160000
Ar 1.088923e+00 0.000000e+00 0.000000e+00
1
Step 161000
Ar 1.186669e+00 0.000000e+00 0.000000e+00
1
Step 162000
Ar 1.167444e+00 0.000000e+00 0.000000e+00
1
Step 163000
Ar 1.230912e+00 0.000000e+00 0.000000e+00
1
Step 164000
Ar 1.166873e+00 0.000000e+00 0.000000e+00
1
Step 165000
Ar 1.166856e+00 0.000000e+00 0.000000e+00
1
Step 166000
Ar 1.146719e+00 0.000000e+00 0.000000e+00
1
Step 167000
Ar 1.122769e+00 0.000000e+00 0.000000e+00
1
Step 168000
Ar 1.179158e+00 0.000000e+00 0.000000e+00
1
Step 169000
Ar 1.136739e+00 0.000000e+00 0.000000e+00
1
Step 170000
Ar 1.174069e+00 0.000000e+00 0.000000e+00
1
Step 171000
Ar 1.177140e+00 0.000000e+00 0.000000e+00
1
Step 172000
Ar 1.159884e+00 0.000000e+00 0.000000e+00
1
Step 173000
Ar 1.191040e+00 0.000000e+00 0.000000e+00
1
Step 174000
Ar 1.145301e+00 0.000000e+00 0.000000e+00
1
Step 175000
Ar 1.185031e+00 0.000000e+00 0.000000e+00
1
Step 176000
Ar 1.154495e+00 0.000000e+00 0.000000e+00
1
Step 177000
Ar 1.166637e+00 0.000000e+00 0.000000e+00
1
Step 178000
Ar 1.151452e+00 0.000000e+00 0.000000e+00
1
Step 179000
Ar 1.260656e+00 0.000000e+00 0.000000e+00
1
Step 180000
Ar 1.230499e+00 0.000000e+00 0.000000e+00
1
Step 181000
Ar 1.212678e+00 0.000000e+00 0.000000e+00
1
Step 182000
Ar 1.143522e+00 0.000000e+00 0.000000e+00
1
Step 183000
Ar 1.145261e+00 0.000000e+00 0.000000e+00
1
Step 184000
Ar 1.222931e+00 0.000000e+00 0.000000e+00
1
Step 185000
Ar 1.248973e+00 0.000000e+00 0.000000e+00
1
Step 186000
Ar 1.286083e+00 0.000000e+00 0.000000e+00
1
Step 187000
Ar 1.242547e+00 0.000000e+00 0.000000e+00
1
Step 188000
Ar 1.263836e+00 0.000000e+00 0.000000e+00
1
Step 189000
Ar 1.267669e+00 0.000000e+00 0.000000e+00
1
Step 190000
Ar 1.253144e+00 0.000000e+00 0.000000e+00
1
Step 191000
Ar 1.239451e+00 0.000000e+00 0.000000e+00
1
Step 192000
Ar 1.239458e+00 0.000000e+00 0.000000e+00
1
Step 193000
Ar 1.242130e+00 0.000000e+00 0.000000e+00
1
Step 194000
Ar 1.248415e+00 0.000000e+00 0.000000e+00
1
Step 195000
Ar 1.251904e+00 0.000000e+00 0.000000e+00
1
Step 196000
Ar 1.249333e+00 0.000000e+00 0.000000e+00
1
Step 197000
Ar 1.181716e+00 0.000000e+00 0.000000e+00
1
Step 198000
Ar 1.196067e+00 0.000000e+00 0.000000e+00
1
Step 199000
Ar 1.183487e+00 0.000000e+00 0.000000e+00
1
Step 200000
Ar 1.186484e+00 0.000000e+00 0.000000e+00
1
Step 201000
Ar 1.188636e+00 0.000000e+00 0.000000e+00
1
Step 202000
Ar 1.189925e+00 0.000000e+00 0.000000e+00
1
Step 203000
Ar 1.197610e+00 0.000000e+00 0.000000e+00
1
Step 204000
Ar 1.213060e+00 0.000000e+00 0.000000e+00
1
Step 205000
Ar 1.142900e+00 0.000000e+00 0.000000e+00
1
Step 206000
Ar 1.144779e+00 0.000000e+00 0.000000e+00
1
Step 207000
Ar 1.141946e+00 0.000000e+00 0.000000e+00
1
Step 208000
Ar 1.152981e+00 0.000000e+00 0.000000e+00
1
Step 209000
Ar 1.141820e+00 0.000000e+00 0.000000e+00
1
Step 210000
Ar 1.153095e+00 0.000000e+00 0.000000e+00
1
Step 211000
Ar 1.141547e+00 0.000000e+00 0.000000e+00
1
Step 212000
Ar 1.147460e+00 0.000000e+00 0.000000e+00
1
Step 213000
Ar 1.151204e+00 0.000000e+00 0.000000e+00
1
Step 214000
Ar 1.145092e+00 0.000000e+00 0.000000e+00
1
Step 215000
Ar 1.155139e+00 0.000000e+00 0.000000e+00
1
Step 216000
Ar 1.152493e+00 0.000000e+00 0.000000e+00
1
Step 217000
Ar 1.190181e+00 0.000000e+00 0.000000e+00
1
Step 218000
Ar 1.179901e+00 0.000000e+00 0.000000e+00
1
Step 219000
Ar 1.178269e+00 0.000000e+00 0.000000e+00
1
Step 220000
Ar 6.786445e-01 0.000000e+00 0.000000e+00
1
Step 221000
Ar 7.289520e-01 0.000000e+00 0.000000e+00
1
Step 222000
Ar 7.152750e-01 0.000000e+00 0.000000e+00
1
Step 223000
Ar 7.081598e-01 0.000000e+00 0.000000e+00
1
Step 224000
Ar 7.352247e-01 0.000000e+00 0.000000e+00
1
Step 225000
Ar 7.272020e-01 0.000000e+00 0.000000e+00
1
Step 226000
Ar 7.288102e-01 0.000000e+00 0.000000e+00
1
Step 227000
Ar 7.137610e-01 0.000000e+00 0.000000e+00
1
Step 228000
Ar 7.183545e-01 0.000000e+00 0.000000e+00
1
Step 229000
Ar 7.855765e-01 0.000000e+00 0.000000e+00
1
Step 230000
Ar 7.712055e-01 0.000000e+00 0.000000e+00
1
Step 231000
Ar 6.107011e-01 0.000000e+00 0.000000e+00
1
Step 232000
Ar 5.083417e-01 0.000000e+00 0.000000e+00
1
Step 233000
Ar 6.435866e-01 0.000000e+00 0.000000e+00
1
Step 234000
Ar 6.260950e-01 0.000000e+00 0.000000e+00
1
Step 235000
Ar 6.387743e-01 0.000000e+00 0.000000e+00
1
Step 236000
Ar 6.518950e-01 0.000000e+00 0.000000e+00
1
Step 237000
Ar 6.072048e-01 0.000000e+00 0.000000e+00
1
Step 238000
Ar 6.599714e-01 0.000000e+00 0.000000e+00
1
Step 239000
Ar 6.461260e-01 0.000000e+00 0.000000e+00
1
Step 240000
Ar 6.474212e-01 0.000000e+00 0.000000e+00
1
Step 241000
Ar 5.273344e-01 0.000000e+00 0.000000e+00
1
Step 242000
Ar 4.843300e-01 0.000000e+00 0.000000e+00
1
Step 243000
Ar 6.055286e-01 0.000000e+00 0.000000e+00
1
Step 244000
Ar 4.355897e-01 0.000000e+00 0.000000e+00
1
Step 245000
Ar 5.012762e-01 0.000000e+00 0.000000e+00
1
Step 246000
Ar 5.107775e-01 0.000000e+00 0.000000e+00
1
Step 247000
Ar 4.407555e-01 0.000000e+00 0.000000e+00
1
Step 248000
Ar 5.510327e-01 0.000000e+00 0.000000e+00
1
Step 249000
Ar 4.632380e-01 0.000000e+00 0.000000e+00
1
Step 250000
Ar 4.357426e-01 0.000000e+00 0.000000e+00
1
Step 251000
Ar 4.634304e-01 0.000000e+00 0.000000e+00
1
Step 252000
Ar 5.074931e-01 0.000000e+00 0.000000e+00
1
Step 253000
Ar 4.312812e-01 0.000000e+00 0.000000e+00
1
Step 254000
Ar 4.392768e-01 0.000000e+00 0.000000e+00
1
Step 255000
Ar 4.988914e-01 0.000000e+00 0.000000e+00
1
Step 256000
Ar 6.050059e-01 0.000000e+00 0.000000e+00
1
Step 257000
Ar 5.938371e-01 0.000000e+00 0.000000e+00
1
Step 258000
Ar 5.965165e-01 0.000000e+00 0.000000e+00
1
Step 259000
Ar 5.885887e-01 0.000000e+00 0.000000e+00
1
Step 260000
Ar 5.974981e-01 0.000000e+00 0.000000e+00
1
Step 261000
Ar 6.001469e-01 0.000000e+00 0.000000e+00
1
Step 262000
Ar 6.045579e-01 0.000000e+00 0.000000e+00
1
Step 263000
Ar 6.015824e-01 0.000000e+00 0.000000e+00
1
Step 264000
Ar 5.869554e-01 0.000000e+00 0.000000e+00
1
Step 265000
Ar 5.902639e-01 0.000000e+00 0.000000e+00
1
Step 266000
Ar 5.535234e-01 0.000000e+00 0.000000e+00
1
Step 267000
Ar 5.439523e-01 0.000000e+00 0.000000e+00
1
Step 268000
Ar 5.501163e-01 0.000000e+00 0.000000e+00
1
Step 269000
Ar 5.516434e-01 0.000000e+00 0.000000e+00
1
Step 270000
Ar 6.514630e-01 0.000000e+00 0.000000e+00
1
Step 271000
Ar 6.547015e-01 0.000000e+00 0.000000e+00
1
Step 272000
Ar 6.542172e-01 0.000000e+00 0.000000e+00
1
Step 273000
Ar 6.543605e-01 0.000000e+00 0.000000e+00
1
Step 274000
Ar 6.599575e-01 0.000000e+00 0.000000e+00
1
Step 275000
Ar 6.703859e-01 0.000000e+00 0.000000e+00
1
Step 276000
Ar 6.578118e-01 0.000000e+00 0.000000e+00
1
Step 277000
Ar 6.542790e-01 0.000000e+00 0.000000e+00
1
Step 278000
Ar 6.615466e-01 0.000000e+00 0.000000e+00
1
Step 279000
Ar 6.560318e-01 0.000000e+00 0.000000e+00
1
Step 280000
Ar 6.644948e-01 0.000000e+00 0.000000e+00
1
Step 281000
Ar 7.711997e-01 0.000000e+00 0.000000e+00
1
Step 282000
Ar 7.787222e-01 0.000000e+00 0.000000e+00
1
Step 283000
Ar 7.697886e-01 0.000000e+00 0.000000e+00
1
Step 284000
Ar 7.722746e-01 0.000000e+00 0.000000e+00
1
Step 285000
Ar 7.761061e-01 0.000000e+00 0.000000e+00
1
Step 286000
Ar 7.698534e-01 0.000000e+00 0.000000e+00
1
Step 287000
Ar 9.946764e-01 0.000000e+00 0.000000e+00
1
Step 288000
Ar 9.728951e-01 0.000000e+00 0.000000e+00
1
Step 289000
Ar 9.427940e-01 0.000000e+00 0.000000e+00
1
Step 290000
Ar 9.110668e-01 0.000000e+00 0.000000e+00
1
Step 291000
Ar 1.000386e+00 0.000000e+00 0.000000e+00
1
Step 292000
Ar 1.001987e+00 0.000000e+00 0.000000e+00
1
Step 293000
Ar 8.915508e-01 0.000000e+00 0.000000e+00
1
Step 294000
Ar 9.010471e-01 0.000000e+00 0.000000e+00
1
Step 295000
Ar 8.277843e-01 0.000000e+00 0.000000e+00
1
Step 296000
Ar 8.517152e-01 0.000000e+00 0.000000e+00
1
Step 297000
Ar 8.592942e-01 0.000000e+00 0.000000e+00
1
Step 298000
Ar 8.550412e-01 0.000000e+00 0.000000e+00
1
Step 299000
Ar 5.359838e-01 0.000000e+00 0.000000e+00
1
Step 300000
Ar 8.429613e-01 0.000000e+00 0.000000e+00
1
Step 301000
Ar 7.676403e-01 0.000000e+00 0.000000e+00
1
Step 302000
Ar 8.225509e-01 0.000000e+00 0.000000e+00
1
Step 303000
Ar 8.213628e-01 0.000000e+00 0.000000e+00
1
Step 304000
Ar 8.041792e-01 0.000000e+00 0.000000e+00
1
Step 305000
Ar 7.987128e-01 0.000000e+00 0.000000e+00
1
Step 306000
Ar 7.987804e-01 0.000000e+00 0.000000e+00
1
Step 307000
Ar 7.951374e-01 0.000000e+00 0.000000e+00
1
Step 308000
Ar 8.048917e-01 0.000000e+00 0.000000e+00
1
Step 309000
Ar 7.998374e-01 0.000000e+00 0.000000e+00
1
Step 310000
Ar 8.005624e-01 0.000000e+00 0.000000e+00
1
Step 311000
Ar 7.999781e-01 0.000000e+00 0.000000e+00
1
Step 312000
Ar 8.009603e-01 0.000000e+00 0.000000e+00
1
Step 313000
Ar 8.037435e-01 0.000000e+00 0.000000e+00
1
Step 314000
Ar 8.027565e-01 0.000000e+00 0.000000e+00
1
Step 315000
Ar 1.175501e+00 0.000000e+00 0.000000e+00
1
Step 316000
Ar 1.180974e+00 0.000000e+00 0.000000e+00
1
Step 317000
Ar 1.181323e+00 0.000000e+00 0.000000e+00
1
Step 318000
Ar 1.176401e+00 0.000000e+00 0.000000e+00
1
Step 319000
Ar 1.176111e+00 0.000000e+00 0.000000e+00
1
Step 320000
Ar 1.173214e+00 0.000000e+00 0.000000e+00
1
Step 321000
Ar 1.179569e+00 0.000000e+00 0.000000e+00
1
Step 322000
Ar 1.100201e+00 0.000000e+00 0.000000e+00
1
Step 323000
Ar 1.098366e+00 0.000000e+00 0.000000e+00
1
Step 324000
Ar 1.096352e+00 0.000000e+00 0.000000e+00
1
Step 325000
Ar 1.101172e+00 0.000000e+00 0.000000e+00
1
Step 326000
Ar 1.100062e+00 0.000000e+00 0.000000e+00
1
Step 327000
Ar 1.097646e+00 0.000000e+00 0.000000e+00
1
Step 328000
Ar 1.100637e+00 0.000000e+00 0.000000e+00
1
Step 329000
Ar 1.096053e+00 0.000000e+00 0.000000e+00
1
Step 330000
Ar 1.095899e+00 0.000000e+00 0.000000e+00
1
Step 331000
Ar 1.100918e+00 0.000000e+00 0.000000e+00
1
Step 332000
Ar 1.099785e+00 0.000000e+00 0.000000e+00
1
Step 333000
Ar 1.097931e+00 0.000000e+00 0.000000e+00
1
Step 334000
Ar 1.100977e+00 0.000000e+00 0.000000e+00
1
Step 335000
Ar 1.095063e+00 0.000000e+00 0.000000e+00
1
Step 336000
Ar 1.096268e+00 0.000000e+00 0.000000e+00
1
Step 337000
Ar 1.099345e+00 0.000000e+00 0.000000e+00
1
Step 338000
Ar 1.102045e+00 0.000000e+00 0.000000e+00
1
Step 339000
Ar 1.098819e+00 0.000000e+00 0.000000e+00
1
Step 340000
Ar 1.098018e+00 0.000000e+00 0.000000e+00
1
Step 341000
Ar 1.097933e+00 0.000000e+00 0.000000e+00
1
Step 342000
Ar 1.098435e+00 0.000000e+00 0.000000e+00
1
Step 343000
Ar 1.094657e+00 0.000000e+00 0.000000e+00
1
Step 344000
Ar 1.098765e+00 0.000000e+00 0.000000e+00
1
Step 345000
Ar 5.789362e-01 0.000000e+00 0.000000e+00
1
Step 346000
Ar 9.320032e-01 0.000000e+00 0.000000e+00
1
Step 347000
Ar 9.678562e-01 0.000000e+00 0.000000e+00
1
Step 348000
Ar 9.761797e-01 0.000000e+00 0.000000e+00
1
Step 349000
Ar 9.454964e-01 0.000000e+00 0.000000e+00
1
Step 350000
Ar 9.786624e-01 0.000000e+00 0.000000e+00
1
Step 351000
Ar 9.292944e-01 0.000000e+00 0.000000e+00
1
Step 352000
Ar 9.450494e-01 0.000000e+00 0.000000e+00
1
Step 353000
Ar 9.581527e-01 0.000000e+00 0.000000e+00
1
Step 354000
Ar 9.593009e-01 0.000000e+00 0.000000e+00
1
Step 355000
Ar 9.568483e-01 0.000000e+00 0.000000e+00
1
Step 356000
Ar 9.307271e-01 0.000000e+00 0.000000e+00
1
Step 357000
Ar 9.502464e-01 0.000000e+00 0.000000e+00
1
Step 358000
Ar 9.281821e-01 0.000000e+00 0.000000e+00
1
Step 359000
Ar 9.291612e-01 0.000000e+00 0.000000e+00
1
Step 360000
Ar 9.408813e-01 0.000000e+00 0.000000e+00
1
Step 361000
Ar 9.392201e-01 0.000000e+00 0.000000e+00
1
Step 362000
Ar 9.311402e-01 0.000000e+00 0.000000e+00
1
Step 363000
Ar 9.330044e-01 0.000000e+00 0.000000e+00
1
Step 364000
Ar 9.411738e-01 0.000000e+00 0.000000e+00
1
Step 365000
Ar 1.104951e+00 0.000000e+00 0.000000e+00
1
Step 366000
Ar 8.016221e-01 0.000000e+00 0.000000e+00
1
Step 367000
Ar 8.046977e-01 0.000000e+00 0.000000e+00
1
Step 368000
Ar 1.058330e+00 0.000000e+00 0.000000e+00
1
Step 369000
Ar 9.680695e-01 0.000000e+00 0.000000e+00
1
Step 370000
Ar 9.671041e-01 0.000000e+00 0.000000e+00
1
Step 371000
Ar 9.305770e-01 0.000000e+00 0.000000e+00
1
Step 372000
Ar 9.230976e-01 0.000000e+00 0.000000e+00
1
Step 373000
Ar 1.004454e+00 0.000000e+00 0.000000e+00
1
Step 374000
Ar 1.001176e+00 0.000000e+00 0.000000e+00
1
Step 375000
Ar 9.971272e-01 0.000000e+00 0.000000e+00
1
Step 376000
Ar 1.027243e+00 0.000000e+00 0.000000e+00
1
Step 377000
Ar 9.976481e-01 0.000000e+00 0.000000e+00
1
Step 378000
Ar 9.958113e-01 0.000000e+00 0.000000e+00
1
Step 379000
Ar 9.202846e-01 0.000000e+00 0.000000e+00
1
Step 380000
Ar 4.454413e-01 0.000000e+00 0.000000e+00
1
Step 381000
Ar 4.703664e-01 0.000000e+00 0.000000e+00
1
Step 382000
Ar 4.491400e-01 0.000000e+00 0.000000e+00
1
Step 383000
Ar 4.860878e-01 0.000000e+00 0.000000e+00
1
Step 384000
Ar 4.577881e-01 0.000000e+00 0.000000e+00
1
Step 385000
Ar 4.468170e-01 0.000000e+00 0.000000e+00
1
Step 386000
Ar 4.790018e-01 0.000000e+00 0.000000e+00
1
Step 387000
Ar 4.750195e-01 0.000000e+00 0.000000e+00
1
Step 388000
Ar 1.814965e-01 0.000000e+00 0.000000e+00
1
Step 389000
Ar -1.285879e-01 0.000000e+00 0.000000e+00
1
Step 390000
Ar -8.389171e-01 0.000000e+00 0.000000e+00
1
Step 391000
Ar -1.002857e+00 0.000000e+00 0.000000e+00
1
Step 392000
Ar -9.385165e-01 0.000000e+00 0.000000e+00
1
Step 393000
Ar -9.718440e-01 0.000000e+00 0.000000e+00
1
Step 394000
Ar -1.094521e+00 0.000000e+00 0.000000e+00
1
Step 395000
Ar -9.784611e-01 0.000000e+00 0.000000e+00
1
Step 396000
Ar -9.762875e-01 0.000000e+00 0.000000e+00
1
Step 397000
Ar -1.020926e+00 0.000000e+00 0.000000e+00
1
Step 398000
Ar -9.789709e-01 0.000000e+00 0.000000e+00
1
Step 399000
Ar -1.064828e+00 0.000000e+00 0.000000e+00
1
Step 400000
Ar -1.066710e+00 0.000000e+00 0.000000e+00
1
Step 401000
Ar -1.013232e+00 0.000000e+00 0.000000e+00
1
Step 402000
Ar -1.038127e+00 0.000000e+00 0.000000e+00
1
Step 403000
Ar -1.114998e+00 0.000000e+00 0.000000e+00
1
Step 404000
Ar -1.185758e+00 0.000000e+00 0.000000e+00
1
Step 405000
Ar -1.127696e+00 0.000000e+00 0.000000e+00
1
Step 406000
Ar -9.977335e-01 0.000000e+00 0.000000e+00
1
Step 407000
Ar -1.054462e+00 0.000000e+00 0.000000e+00
1
Step 408000
Ar -9.997395e-01 0.000000e+00 0.000000e+00
1
Step 409000
Ar -1.027296e+00 0.000000e+00 0.000000e+00
1
Step 410000
Ar -8.502483e-01 0.000000e+00 0.000000e+00
1
Step 411000
Ar -8.533976e-01 0.000000e+00 0.000000e+00
1
Step 412000
Ar -7.540748e-01 0.000000e+00 0.000000e+00
1
Step 413000
Ar -8.596650e-01 0.000000e+00 0.000000e+00
1
Step 414000
Ar -7.144967e-01 0.000000e+00 0.000000e+00
1
Step 415000
Ar -8.060933e-01 0.000000e+00 0.000000e+00
1
Step 416000
Ar -8.738848e-01 0.000000e+00 0.000000e+00
1
Step 417000
Ar -7.337796e-01 0.000000e+00 0.000000e+00
1
Step 418000
Ar -7.450742e-01 0.000000e+00 0.000000e+00
1
Step 419000
Ar -6.996284e-01 0.000000e+00 0.000000e+00
1
Step 420000
Ar -7.727300e-01 0.000000e+00 0.000000e+00
1
Step 421000
Ar -8.264107e-01 0.000000e+00 0.000000e+00
1
Step 422000
Ar -8.242687e-01 0.000000e+00 0.000000e+00
1
Step 423000
Ar -7.815103e-01 0.000000e+00 0.000000e+00
1
Step 424000
Ar -7.704969e-01 0.000000e+00 0.000000e+00
1
Step 425000
Ar -7.730397e-01 0.000000e+00 0.000000e+00
1
Step 426000
Ar -5.607463e-01 0.000000e+00 0.000000e+00
1
Step 427000
Ar -7.854311e-01 0.000000e+00 0.000000e+00
1
Step 428000
Ar -7.651199e-01 0.000000e+00 0.000000e+00
1
Step 429000
Ar -7.849016e-01 0.000000e+00 0.000000e+00
1
Step 430000
Ar -7.115149e-01 0.000000e+00 0.000000e+00
1
Step 431000
Ar -7.577433e-01 0.000000e+00 0.000000e+00
1
Step 432000
Ar -7.783752e-01 0.000000e+00 0.000000e+00
1
Step 433000
Ar -7.830969e-01 0.000000e+00 0.000000e+00
1
Step 434000
Ar -7.519103e-01 0.000000e+00 0.000000e+00
1
Step 435000
Ar -7.874018e-01 0.000000e+00 0.000000e+00
1
Step 436000
Ar -7.578836e-01 0.000000e+00 0.000000e+00
1
Step 437000
Ar -7.345698e-01 0.000000e+00 0.000000e+00
1
Step 438000
Ar -6.686180e-01 0.000000e+00 0.000000e+00
1
Step 439000
Ar -6.625054e-01 0.000000e+00 0.000000e+00
1
Step 440000
Ar -6.595677e-01 0.000000e+00 0.000000e+00
1
Step 441000
Ar -6.711235e-01 0.000000e+00 0.000000e+00
1
Step 442000
Ar -6.665941e-01 0.000000e+00 0.000000e+00
1
Step 443000
Ar -6.695235e-01 0.000000e+00 0.000000e+00
1
Step 444000
Ar -7.722950e-01 0.000000e+00 0.000000e+00
1
Step 445000
Ar -7.173988e-01 0.000000e+00 0.000000e+00
1
Step 446000
Ar -7.508286e-01 0.000000e+00 0.000000e+00
1
Step 447000
Ar -7.992815e-01 0.000000e+00 0.000000e+00
1
Step 448000
Ar -7.354608e-01 0.000000e+00 0.000000e+00
1
Step 449000
Ar -9.565500e-01 0.000000e+00 0.000000e+00
1
Step 450000
Ar -9.587685e-01 0.000000e+00 0.000000e+00
1
Step 451000
Ar -1.065401e+00 0.000000e+00 0.000000e+00
1
Step 452000
Ar -9.886339e-01 0.000000e+00 0.000000e+00
1
Step 453000
Ar -1.002073e+00 0.000000e+00 0.000000e+00
1
Step 454000
Ar -1.056619e+00 0.000000e+00 0.000000e+00
1
Step 455000
Ar -1.014077e+00 0.000000e+00 0.000000e+00
1
Step 456000
Ar -1.006418e+00 0.000000e+00 0.000000e+00
1
Step 457000
Ar -1.004425e+00 0.000000e+00 0.000000e+00
1
Step 458000
Ar -9.893481e-01 0.000000e+00 0.000000e+00
1
Step 459000
Ar -9.940103e-01 0.000000e+00 0.000000e+00
1
Step 460000
Ar -1.017010e+00 0.000000e+00 0.000000e+00
1
Step 461000
Ar -1.012614e+00 0.000000e+00 0.000000e+00
1
Step 462000
Ar -1.008320e+00 0.000000e+00 0.000000e+00
1
Step 463000
Ar -1.004515e+00 0.000000e+00 0.000000e+00
1
Step 464000
Ar -9.891568e-01 0.000000e+00 0.000000e+00
1
Step 465000
Ar -1.009491e+00 0.000000e+00 0.000000e+00
1
Step 466000
Ar -1.027297e+00 0.000000e+00 0.000000e+00
1
Step 467000
Ar -9.900813e-01 0.000000e+00 0.000000e+00
1
Step 468000
Ar -1.026929e+00 0.000000e+00 0.000000e+00
1
Step 469000
Ar -1.018737e+00 0.000000e+00 0.000000e+00
1
Step 470000
Ar -9.935580e-01 0.000000e+00 0.000000e+00
1
Step 471000
Ar -1.022548e+00 0.000000e+00 0.000000e+00
1
Step 472000
Ar -9.994102e-01 0.000000e+00 0.000000e+00
1
Step 473000
Ar -9.901065e-01 0.000000e+00 0.000000e+00
1
Step 474000
Ar -9.851267e-01 0.000000e+00 0.000000e+00
1
Step 475000
Ar -9.040094e-01 0.000000e+00 0.000000e+00
1
Step 476000
Ar -8.571344e-01 0.000000e+00 0.000000e+00
1
Step 477000
Ar -9.012472e-01 0.000000e+00 0.000000e+00
1
Step 478000
Ar -9.315270e-01 0.000000e+00 0.000000e+00
1
Step 479000
Ar -8.564997e-01 0.000000e+00 0.000000e+00
1
Step 480000
Ar -9.007268e-01 0.000000e+00 0.000000e+00
1
Step 481000
Ar -8.495399e-01 0.000000e+00 0.000000e+00
1
Step 482000
Ar -8.588557e-01 0.000000e+00 0.000000e+00
1
Step 483000
Ar -8.557864e-01 0.000000e+00 0.000000e+00
1
Step 484000
Ar -8.878829e-01 0.000000e+00 0.000000e+00
1
Step 485000
Ar -8.874664e-01 0.000000e+00 0.000000e+00
1
Step 486000
Ar -7.408115e-01 0.000000e+00 0.000000e+00
1
Step 487000
Ar -7.228678e-01 0.000000e+00 0.000000e+00
1
Step 488000
Ar -7.008088e-01 0.000000e+00 0.000000e+00
1
Step 489000
Ar -7.337779e-01 0.000000e+00 0.000000e+00
1
Step 490000
Ar -7.056753e-01 0.000000e+00 0.000000e+00
1
Step 491000
Ar -7.434303e-01 0.000000e+00 0.000000e+00
1
Step 492000
Ar -7.586073e-01 0.000000e+00 0.000000e+00
1
Step 493000
Ar -7.200385e-01 0.000000e+00 0.000000e+00
1
Step 494000
Ar -7.483240e-01 0.000000e+00 0.000000e+00
1
Step 495000
Ar -7.418956e-01 0.000000e+00 0.000000e+00
1
Step 496000
Ar -7.259405e-01 0.000000e+00 0.000000e+00
1
Step 497000
Ar -7.460227e-01 0.000000e+00 0.000000e+00
1
Step 498000
Ar -7.368011e-01 0.000000e+00 0.000000e+00
1
Step 499000
Ar -6.932286e-01 0.000000e+00 0.000000e+00
1
Step 500000
Ar -7.469636e-01 0.000000e+00 0.000000e+00
1
Step 501000
Ar -7.092616e-01 0.000000e+00 0.000000e+00
1
Step 502000
Ar -6.932220e-01 0.000000e+00 0.000000e+00
1
Step 503000
Ar -7.023832e-01 0.000000e+00 0.000000e+00
1
Step 504000
Ar -7.303748e-01 0.000000e+00 0.000000e+00
1
Step 505000
Ar -7.086119e-01 0.000000e+00 0.000000e+00
1
Step 506000
Ar -7.048355e-01 0.000000e+00 0.000000e+00
1
Step 507000
Ar -8.504560e-01 0.000000e+00 0.000000e+00
1
Step 508000
Ar -8.482170e-01 0.000000e+00 0.000000e+00
1
Step 509000
Ar -1.180300e+00 0.000000e+00 0.000000e+00
1
Step 510000
Ar -1.238578e+00 0.000000e+00 0.000000e+00
1
Step 511000
Ar -1.197799e+00 0.000000e+00 0.000000e+00
1
Step 512000
Ar -1.138826e+00 0.000000e+00 0.000000e+00
1
Step 513000
Ar -1.147557e+00 0.000000e+00 0.000000e+00
1
Step 514000
Ar -1.232626e+00 0.000000e+00 0.000000e+00
1
Step 515000
Ar -1.245367e+00 0.000000e+00 0.000000e+00
1
Step 516000
Ar -1.156466e+00 0.000000e+00 0.000000e+00
1
Step 517000
Ar -1.182347e+00 0.000000e+00 0.000000e+00
1
Step 518000
Ar -1.115185e+00 0.000000e+00 0.000000e+00
1
Step 519000
Ar -1.108939e+00 0.000000e+00 0.000000e+00
1
Step 520000
Ar -1.113099e+00 0.000000e+00 0.000000e+00
1
Step 521000
Ar -1.232148e+00 0.000000e+00 0.000000e+00
1
Step 522000
Ar -1.259792e+00 0.000000e+00 0.000000e+00
1
Step 523000
Ar -1.198046e+00 0.000000e+00 0.000000e+00
1
Step 524000
Ar -1.197602e+00 0.000000e+00 0.000000e+00
1
Step 525000
Ar -1.219282e+00 0.000000e+00 0.000000e+00
1
Step 526000
Ar -1.253676e+00 0.000000e+00 0.000000e+00
1
Step 527000
Ar -1.235275e+00 0.000000e+00 0.000000e+00
1
Step 528000
Ar -1.230257e+00 0.000000e+00 0.000000e+00
1
Step 529000
Ar -1.226918e+00 0.000000e+00 0.000000e+00
1
Step 530000
Ar -1.237197e+00 0.000000e+00 0.000000e+00
1
Step 531000
Ar -1.228850e+00 0.000000e+00 0.000000e+00
1
Step 532000
Ar -1.354224e+00 0.000000e+00 0.000000e+00
1
Step 533000
Ar -1.296315e+00 0.000000e+00 0.000000e+00
1
Step 534000
Ar -1.316232e+00 0.000000e+00 0.000000e+00
1
Step 535000
Ar -1.142881e+00 0.000000e+00 0.000000e+00
1
Step 536000
Ar -1.158506e+00 0.000000e+00 0.000000e+00
1
Step 537000
Ar -1.162198e+00 0.000000e+00 0.000000e+00
1
Step 538000
Ar -1.167093e+00 0.000000e+00 0.000000e+00
1
Step 539000
Ar -1.155221e+00 0.000000e+00 0.000000e+00
1
Step 540000
Ar -1.141035e+00 0.000000e+00 0.000000e+00
1
Step 541000
Ar -1.153413e+00 0.000000e+00 0.000000e+00
1
Step 542000
Ar -1.149156e+00 0.000000e+00 0.000000e+00
1
Step 543000
Ar -1.170142e+00 0.000000e+00 0.000000e+00
1
Step 544000
Ar -1.164300e+00 0.000000e+00 0.000000e+00
1
Step 545000
Ar -1.141281e+00 0.000000e+00 0.000000e+00
1
Step 546000
Ar -1.155243e+00 0.000000e+00 0.000000e+00
1
Step 547000
Ar -1.162295e+00 0.000000e+00 0.000000e+00
1
Step 548000
Ar -1.146920e+00 0.000000e+00 0.000000e+00
1
Step 549000
Ar -1.162213e+00 0.000000e+00 0.000000e+00
1
Step 550000
Ar -1.251833e+00 0.000000e+00 0.000000e+00
1
Step 551000
Ar -1.245174e+00 0.000000e+00 0.000000e+00
1
Step 552000
Ar -1.230729e+00 0.000000e+00 0.000000e+00
1
Step 553000
Ar -1.243516e+00 0.000000e+00 0.000000e+00
1
Step 554000
Ar -1.246816e+00 0.000000e+00 0.000000e+00
1
Step 555000
Ar -1.228277e+00 0.000000e+00 0.000000e+00
1
Step 556000
Ar -1.235336e+00 0.000000e+00 0.000000e+00
1
Step 557000
Ar -9.745198e-01 0.000000e+00 0.000000e+00
1
Step 558000
Ar -9.136788e-01 0.000000e+00 0.000000e+00
1
Step 559000
Ar -6.384739e-01 0.000000e+00 0.000000e+00
1
Step 560000
Ar -6.370619e-01 0.000000e+00 0.000000e+00
1
Step 561000
Ar -7.041016e-01 0.000000e+00 0.000000e+00
1
Step 562000
Ar -7.971722e-01 0.000000e+00 0.000000e+00
1
Step 563000
Ar -7.946167e-01 0.000000e+00 0.000000e+00
1
Step 564000
Ar -7.491325e-01 0.000000e+00 0.000000e+00
1
Step 565000
Ar -7.563263e-01 0.000000e+00 0.000000e+00
1
Step 566000
Ar -7.575614e-01 0.000000e+00 0.000000e+00
1
Step 567000
Ar -7.630306e-01 0.000000e+00 0.000000e+00
1
Step 568000
Ar -7.622682e-01 0.000000e+00 0.000000e+00
1
Step 569000
Ar -7.557511e-01 0.000000e+00 0.000000e+00
1
Step 570000
Ar -7.507910e-01 0.000000e+00 0.000000e+00
1
Step 571000
Ar -7.635124e-01 0.000000e+00 0.000000e+00
1
Step 572000
Ar -7.514007e-01 0.000000e+00 0.000000e+00
1
Step 573000
Ar -7.550334e-01 0.000000e+00 0.000000e+00
1
Step 574000
Ar -7.568123e-01 0.000000e+00 0.000000e+00
1
Step 575000
Ar -7.099013e-01 0.000000e+00 0.000000e+00
1
Step 576000
Ar -7.095436e-01 0.000000e+00 0.000000e+00
1
Step 577000
Ar -5.496588e-01 0.000000e+00 0.000000e+00
1
Step 578000
Ar -5.719154e-01 0.000000e+00 0.000000e+00
1
Step 579000
Ar -4.792798e-01 0.000000e+00 0.000000e+00
1
Step 580000
Ar -4.444092e-01 0.000000e+00 0.000000e+00
1
Step 581000
Ar -4.337647e-01 0.000000e+00 0.000000e+00
1
Step 582000
Ar -4.856614e-01 0.000000e+00 0.000000e+00
1
Step 583000
Ar -4.923574e-01 0.000000e+00 0.000000e+00
1
Step 584000
Ar -5.111849e-01 0.000000e+00 0.000000e+00
1
Step 585000
Ar -5.532195e-01 0.000000e+00 0.000000e+00
1
Step 586000
Ar -5.264453e-01 0.000000e+00 0.000000e+00
1
Step 587000
Ar -5.669126e-01 0.000000e+00 0.000000e+00
1
Step 588000
Ar -5.749980e-01 0.000000e+00 0.000000e+00
1
Step 589000
Ar -5.614515e-01 0.000000e+00 0.000000e+00
1
Step 590000
Ar -5.654218e-01 0.000000e+00 0.000000e+00
1
Step 591000
Ar -5.636384e-01 0.000000e+00 0.000000e+00
1
Step 592000
Ar -5.717522e-01 0.000000e+00 0.000000e+00
1
Step 593000
Ar -5.020637e-01 0.000000e+00 0.000000e+00
1
Step 594000
Ar -4.563685e-01 0.000000e+00 0.000000e+00
1
Step 595000
Ar -4.447911e-01 0.000000e+00 0.000000e+00
1
Step 596000
Ar -4.695982e-01 0.000000e+00 0.000000e+00
1
Step 597000
Ar -4.817017e-01 0.000000e+00 0.000000e+00
1
Step 598000
Ar -4.607195e-01 0.000000e+00 0.000000e+00
1
Step 599000
Ar -4.676667e-01 0.000000e+00 0.000000e+00
1
Step 600000
Ar -4.776129e-01 0.000000e+00 0.000000e+00
1
Step 601000
Ar -4.711832e-01 0.000000e+00 0.000000e+00
1
Step 602000
Ar -4.793611e-01 0.000000e+00 0.000000e+00
1
Step 603000
Ar -4.711980e-01 0.000000e+00 0.000000e+00
1
Step 604000
Ar -4.656792e-01 0.000000e+00 0.000000e+00
1
Step 605000
Ar -4.458033e-01 0.000000e+00 0.000000e+00
1
Step 606000
Ar -4.568897e-01 0.000000e+00 0.000000e+00
1
Step 607000
Ar -4.744335e-01 0.000000e+00 0.000000e+00
1
Step 608000
Ar -4.729310e-01 0.000000e+00 0.000000e+00
1
Step 609000
Ar -4.751286e-01 0.000000e+00 0.000000e+00
1
Step 610000
Ar -4.761329e-01 0.000000e+00 0.000000e+00
1
Step 611000
Ar -4.793260e-01 0.000000e+00 0.000000e+00
1
Step 612000
Ar -4.752404e-01 0.000000e+00 0.000000e+00
1
Step 613000
Ar -4.754941e-01 0.000000e+00 0.000000e+00
1
Step 614000
Ar -4.659163e-01 0.000000e+00 0.000000e+00
1
Step 615000
Ar -5.042552e-01 0.000000e+00 0.000000e+00
1
Step 616000
Ar -5.014102e-01 0.000000e+00 0.000000e+00
1
Step 617000
Ar -5.036111e-01 0.000000e+00 0.000000e+00
1
Step 618000
Ar -4.812889e-01 0.000000e+00 0.000000e+00
1
Step 619000
Ar -4.788613e-01 0.000000e+00 0.000000e+00
1
Step 620000
Ar -4.801406e-01 0.000000e+00 0.000000e+00
1
Step 621000
Ar -2.817938e-01 0.000000e+00 0.000000e+00
1
Step 622000
Ar 3.554769e-01 0.000000e+00 0.000000e+00
1
Step 623000
Ar 3.608322e-01 0.000000e+00 0.000000e+00
1
Step 624000
Ar 3.622001e-01 0.000000e+00 0.000000e+00
1
Step 625000
Ar 3.727832e-01 0.000000e+00 0.000000e+00
1
Step 626000
Ar 3.081469e-01 0.000000e+00 0.000000e+00
1
Step 627000
Ar 2.782732e-01 0.000000e+00 0.000000e+00
1
Step 628000
Ar 3.180244e-01 0.000000e+00 0.000000e+00
1
Step 629000
Ar 3.450216e-01 0.000000e+00 0.000000e+00
1
Step 630000
Ar 3.872874e-01 0.000000e+00 0.000000e+00
1
Step 631000
Ar 3.938243e-01 0.000000e+00 0.000000e+00
1
Step 632000
Ar 3.581110e-01 0.000000e+00 0.000000e+00
1
Step 633000
Ar 3.609945e-01 0.000000e+00 0.000000e+00
1
Step 634000
Ar 3.308816e-01 0.000000e+00 0.000000e+00
1
Step 635000
Ar 3.673295e-01 0.000000e+00 0.000000e+00
1
Step 636000
Ar 3.558363e-01 0.000000e+00 0.000000e+00
1
Step 637000
Ar 3.768630e-01 0.000000e+00 0.000000e+00
1
Step 638000
Ar 3.739011e-01 0.000000e+00 0.000000e+00
1
Step 639000
Ar 3.746443e-01 0.000000e+00 0.000000e+00
1
Step 640000
Ar 3.660039e-01 0.000000e+00 0.000000e+00
1
Step 641000
Ar 3.591437e-01 0.000000e+00 0.000000e+00
1
Step 642000
Ar 3.405885e-01 0.000000e+00 0.000000e+00
1
Step 643000
Ar 3.500831e-01 0.000000e+00 0.000000e+00
1
Step 644000
Ar 3.295729e-01 0.000000e+00 0.000000e+00
1
Step 645000
Ar 3.206377e-01 0.000000e+00 0.000000e+00
1
Step 646000
Ar 3.372544e-01 0.000000e+00 0.000000e+00
1
Step 647000
Ar 1.393985e+00 0.000000e+00 0.000000e+00
1
Step 648000
Ar 1.285024e+00 0.000000e+00 0.000000e+00
1
Step 649000
Ar 1.330782e+00 0.000000e+00 0.000000e+00
1
Step 650000
Ar 1.333672e+00 0.000000e+00 0.000000e+00
1
Step 651000