1
Step 120000
Ar 1.017411e+00 0.000000e+00 0.000000e+00
1
Step 121000
Ar 1.002727e+00 0.000000e+00 0.000000e+00
1
Step 122000
Ar 1.020386e+00 0.000000e+00 0.000000e+00
1
Step 123000
Ar 9.924132e-01 0.000000e+00 0.000000e+00
1
Step 124000
Ar 9.988805e-01 0.000000e+00 0.000000e+00
1
Step 125000
Ar 1.000032e+00 0.000000e+00 0.000000e+00
1
Step 126000
Ar 1.018472e+00 0.000000e+00 0.000000e+00
1
Step 127000
Ar 1.026768e+00 0.000000e+00 0.000000e+00
1
Step 128000
Ar 9.771098e-01 0.000000e+00 0.000000e+00
1
Step 129000
Ar 9.834940e-01 0.000000e+00 0.000000e+00
1
Step 130000
Ar 9.573873e-01 0.000000e+00 0.000000e+00
1
Step 131000
Ar 9.726276e-01 0.000000e+00 0.000000e+00
1
Step 132000
Ar 9.709316e-01 0.000000e+00 0.000000e+00
1
Step 133000
Ar 1.030795e+00 0.000000e+00 0.000000e+00
1
Step 134000
Ar 1.026264e+00 0.000000e+00 0.000000e+00
1
Step 135000
Ar 1.033261e+00 0.000000e+00 0.000000e+00
1
Step 136000
Ar 1.021870e+00 0.000000e+00 0.000000e+00
1
Step 137000
Ar 1.030845e+00 0.000000e+00 0.000000e+00
1
Step 138000
Ar 1.031715e+00 0.000000e+00 0.000000e+00
1
Step 139000
Ar 1.039432e+00 0.000000e+00 0.000000e+00
1
Step 140000
Ar 1.037059e+00 0.000000e+00 0.000000e+00
1
Step 141000
Ar 9.559107e-01 0.000000e+00 0.000000e+00
1
Step 142000
Ar 8.858099e-01 0.000000e+00 0.000000e+00
1
Step 143000
Ar 9.431171e-01 0.000000e+00 0.000000e+00
1
Step 144000
Ar 9.444438e-01 0.000000e+00 0.000000e+00
1
Step 145000
Ar 9.430404e-01 0.000000e+00 0.000000e+00
1
Step 146000
Ar 9.417198e-01 0.000000e+00 0.000000e+00
1
Step 147000
Ar 9.408676e-01 0.000000e+00 0.000000e+00
1
Step 148000
Ar 9.293729e-01 0.000000e+00 0.000000e+00
1
Step 149000
Ar 8.510619e-01 0.000000e+00 0.000000e+00
1
Step 150000
Ar 1.142152e+00 0.000000e+00 0.000000e+00
1
Step 151000
Ar 1.018449e+00 0.000000e+00 0.000000e+00
1
Step 152000
Ar 1.053592e+00 0.000000e+00 0.000000e+00
1
Step 153000
Ar 1.054321e+00 0.000000e+00 0.000000e+00
1
Step 154000
Ar 1.056107e+00 0.000000e+00 0.000000e+00
1
Step 155000
Ar 1.070446e+00 0.000000e+00 0.000000e+00
1
Step 156000
Ar 1.063849e+00 0.000000e+00 0.000000e+00
1
Step 157000
Ar 1.068692e+00 0.000000e+00 0.000000e+00
1
Step 158000
Ar 1.100204e+00 0.000000e+00 0.000000e+00
1
Step 159000
Ar 1.077346e+00 0.000000e+00 0.000000e+00
1
Step 160000
Ar 1.076524e+00 0.000000e+00 0.000000e+00
1
Step 161000
Ar 1.079624e+00 0.000000e+00 0.000000e+00
1
Step 162000
Ar 1.076380e+00 0.000000e+00 0.000000e+00
1
Step 163000
Ar 1.081190e+00 0.000000e+00 0.000000e+00
1
Step 164000
Ar 9.922813e-01 0.000000e+00 0.000000e+00
1
Step 165000
Ar 1.077959e+00 0.000000e+00 0.000000e+00
1
Step 166000
Ar 1.075257e+00 0.000000e+00 0.000000e+00
1
Step 167000
Ar 9.422587e-01 0.000000e+00 0.000000e+00
1
Step 168000
Ar 9.078383e-01 0.000000e+00 0.000000e+00
1
Step 169000
Ar 1.123857e+00 0.000000e+00 0.000000e+00
1
Step 170000
Ar 1.009553e+00 0.000000e+00 0.000000e+00
1
Step 171000
Ar 8.964881e-01 0.000000e+00 0.000000e+00
1
Step 172000
Ar 1.091378e+00 0.000000e+00 0.000000e+00
1
Step 173000
Ar 1.088130e+00 0.000000e+00 0.000000e+00
1
Step 174000
Ar 8.760639e-01 0.000000e+00 0.000000e+00
1
Step 175000
Ar 8.832204e-01 0.000000e+00 0.000000e+00
1
Step 176000
Ar 8.797144e-01 0.000000e+00 0.000000e+00
1
Step 177000
Ar 8.813887e-01 0.000000e+00 0.000000e+00
1
Step 178000
Ar 8.826800e-01 0.000000e+00 0.000000e+00
1
Step 179000
Ar 8.823963e-01 0.000000e+00 0.000000e+00
1
Step 180000
Ar 8.812987e-01 0.000000e+00 0.000000e+00
1
Step 181000
Ar 8.821003e-01 0.000000e+00 0.000000e+00
1
Step 182000
Ar 8.854104e-01 0.000000e+00 0.000000e+00
1
Step 183000
Ar 8.790023e-01 0.000000e+00 0.000000e+00
1
Step 184000
Ar 8.832892e-01 0.000000e+00 0.000000e+00
1
Step 185000
Ar 8.863162e-01 0.000000e+00 0.000000e+00
1
Step 186000
Ar 8.831912e-01 0.000000e+00 0.000000e+00
1
Step 187000
Ar 8.784497e-01 0.000000e+00 0.000000e+00
1
Step 188000
Ar 9.124861e-01 0.000000e+00 0.000000e+00
1
Step 189000
Ar 1.072424e+00 0.000000e+00 0.000000e+00
1
Step 190000
Ar 1.072348e+00 0.000000e+00 0.000000e+00
1
Step 191000
Ar 9.795972e-01 0.000000e+00 0.000000e+00
1
Step 192000
Ar 1.086218e+00 0.000000e+00 0.000000e+00
1
Step 193000
Ar 1.090328e+00 0.000000e+00 0.000000e+00
1
Step 194000
Ar 1.086395e+00 0.000000e+00 0.000000e+00
1
Step 195000
Ar 1.090470e+00 0.000000e+00 0.000000e+00
1
Step 196000
Ar 1.089685e+00 0.000000e+00 0.000000e+00
1
Step 197000
Ar 1.085606e+00 0.000000e+00 0.000000e+00
1
Step 198000
Ar 1.087171e+00 0.000000e+00 0.000000e+00
1
Step 199000
Ar 1.066379e+00 0.000000e+00 0.000000e+00
1
Step 200000
Ar 1.084465e+00 0.000000e+00 0.000000e+00
1
Step 201000
Ar 1.086504e+00 0.000000e+00 0.000000e+00
1
Step 202000
Ar 1.087110e+00 0.000000e+00 0.000000e+00
1
Step 203000
Ar 1.071562e+00 0.000000e+00 0.000000e+00
1
Step 204000
Ar 1.008047e+00 0.000000e+00 0.000000e+00
1
Step 205000
Ar 1.091806e+00 0.000000e+00 0.000000e+00
1
Step 206000
Ar 1.090761e+00 0.000000e+00 0.000000e+00
1
Step 207000
Ar 1.087366e+00 0.000000e+00 0.000000e+00
1
Step 208000
Ar 1.088263e+00 0.000000e+00 0.000000e+00
1
Step 209000
Ar 1.090030e+00 0.000000e+00 0.000000e+00
1
Step 210000
Ar 1.083528e+00 0.000000e+00 0.000000e+00
1
Step 211000
Ar 1.088051e+00 0.000000e+00 0.000000e+00
1
Step 212000
Ar 1.094136e+00 0.000000e+00 0.000000e+00
1
Step 213000
Ar 1.090204e+00 0.000000e+00 0.000000e+00
1
Step 214000
Ar 1.100002e+00 0.000000e+00 0.000000e+00
1
Step 215000
Ar 1.101399e+00 0.000000e+00 0.000000e+00
1
Step 216000
Ar 1.098567e+00 0.000000e+00 0.000000e+00
1
Step 217000
Ar 1.097481e+00 0.000000e+00 0.000000e+00
1
Step 218000
Ar 1.098871e+00 0.000000e+00 0.000000e+00
1
Step 219000
Ar 1.023837e+00 0.000000e+00 0.000000e+00
1
Step 220000
Ar 1.087921e+00 0.000000e+00 0.000000e+00
1
Step 221000
Ar 1.020168e+00 0.000000e+00 0.000000e+00
1
Step 222000
Ar 9.347087e-01 0.000000e+00 0.000000e+00
1
Step 223000
Ar 1.092720e+00 0.000000e+00 0.000000e+00
1
Step 224000
Ar 1.072178e+00 0.000000e+00 0.000000e+00
1
Step 225000
Ar 8.770351e-01 0.000000e+00 0.000000e+00
1
Step 226000
Ar 1.035660e+00 0.000000e+00 0.000000e+00
1
Step 227000
Ar 1.176658e+00 0.000000e+00 0.000000e+00
1
Step 228000
Ar 1.049750e+00 0.000000e+00 0.000000e+00
1
Step 229000
Ar 6.702578e-01 0.000000e+00 0.000000e+00
1
Step 230000
Ar 1.218189e+00 0.000000e+00 0.000000e+00
1
Step 231000
Ar 1.090234e+00 0.000000e+00 0.000000e+00
1
Step 232000
Ar 1.089148e+00 0.000000e+00 0.000000e+00
1
Step 233000
Ar 1.094944e+00 0.000000e+00 0.000000e+00
1
Step 234000
Ar 8.658720e-01 0.000000e+00 0.000000e+00
1
Step 235000
Ar 8.730006e-01 0.000000e+00 0.000000e+00
1
Step 236000
Ar 1.127269e+00 0.000000e+00 0.000000e+00
1
Step 237000
Ar 1.077173e+00 0.000000e+00 0.000000e+00
1
Step 238000
Ar 1.091106e+00 0.000000e+00 0.000000e+00
1
Step 239000
Ar 1.089864e+00 0.000000e+00 0.000000e+00
1
Step 240000
Ar 6.876280e-01 0.000000e+00 0.000000e+00
1
Step 241000
Ar 1.016042e+00 0.000000e+00 0.000000e+00
1
Step 242000
Ar 1.103289e+00 0.000000e+00 0.000000e+00
1
Step 243000
Ar 1.111570e+00 0.000000e+00 0.000000e+00
1
Step 244000
Ar 1.106164e+00 0.000000e+00 0.000000e+00
1
Step 245000
Ar 1.110041e+00 0.000000e+00 0.000000e+00
1
Step 246000
Ar 1.106992e+00 0.000000e+00 0.000000e+00
1
Step 247000
Ar 1.107585e+00 0.000000e+00 0.000000e+00
1
Step 248000
Ar 1.108448e+00 0.000000e+00 0.000000e+00
1
Step 249000
Ar 1.108167e+00 0.000000e+00 0.000000e+00
1
Step 250000
Ar 1.104626e+00 0.000000e+00 0.000000e+00
1
Step 251000
Ar 1.110877e+00 0.000000e+00 0.000000e+00
1
Step 252000
Ar 1.110800e+00 0.000000e+00 0.000000e+00
1
Step 253000
Ar 1.107902e+00 0.000000e+00 0.000000e+00
1
Step 254000
Ar 1.109918e+00 0.000000e+00 0.000000e+00
1
Step 255000
Ar 1.109793e+00 0.000000e+00 0.000000e+00
1
Step 256000
Ar 1.108274e+00 0.000000e+00 0.000000e+00
1
Step 257000
Ar 1.109152e+00 0.000000e+00 0.000000e+00
1
Step 258000
Ar 1.113027e+00 0.000000e+00 0.000000e+00
1
Step 259000
Ar 9.762401e-01 0.000000e+00 0.000000e+00
1
Step 260000
Ar 8.993957e-01 0.000000e+00 0.000000e+00
1
Step 261000
Ar 7.795525e-01 0.000000e+00 0.000000e+00
1
Step 262000
Ar 1.157457e+00 0.000000e+00 0.000000e+00
1
Step 263000
Ar 8.764529e-01 0.000000e+00 0.000000e+00
1
Step 264000
Ar 8.715008e-01 0.000000e+00 0.000000e+00
1
Step 265000
Ar 8.782348e-01 0.000000e+00 0.000000e+00
1
Step 266000
Ar 8.739699e-01 0.000000e+00 0.000000e+00
1
Step 267000
Ar 8.739856e-01 0.000000e+00 0.000000e+00
1
Step 268000
Ar 8.703651e-01 0.000000e+00 0.000000e+00
1
Step 269000
Ar 8.763888e-01 0.000000e+00 0.000000e+00
1
Step 270000
Ar 8.754137e-01 0.000000e+00 0.000000e+00
1
Step 271000
Ar 8.746159e-01 0.000000e+00 0.000000e+00
1
Step 272000
Ar 8.792920e-01 0.000000e+00 0.000000e+00
1
Step 273000
Ar 8.789001e-01 0.000000e+00 0.000000e+00
1
Step 274000
Ar 8.780673e-01 0.000000e+00 0.000000e+00
1
Step 275000
Ar 8.739980e-01 0.000000e+00 0.000000e+00
1
Step 276000
Ar 8.791068e-01 0.000000e+00 0.000000e+00
1
Step 277000
Ar 8.715835e-01 0.000000e+00 0.000000e+00
1
Step 278000
Ar 1.257290e+00 0.000000e+00 0.000000e+00
1
Step 279000
Ar 9.323941e-01 0.000000e+00 0.000000e+00
1
Step 280000
Ar 1.056352e+00 0.000000e+00 0.000000e+00
1
Step 281000
Ar 8.123102e-01 0.000000e+00 0.000000e+00
1
Step 282000
Ar 1.163782e+00 0.000000e+00 0.000000e+00
1
Step 283000
Ar 5.977366e-01 0.000000e+00 0.000000e+00
1
Step 284000
Ar 1.061522e+00 0.000000e+00 0.000000e+00
1
Step 285000
Ar 7.051617e-01 0.000000e+00 0.000000e+00
1
Step 286000
Ar 7.217975e-01 0.000000e+00 0.000000e+00
1
Step 287000
Ar 1.165670e+00 0.000000e+00 0.000000e+00
1
Step 288000
Ar 9.815692e-01 0.000000e+00 0.000000e+00
1
Step 289000
Ar 1.084324e+00 0.000000e+00 0.000000e+00
1
Step 290000
Ar 1.018779e+00 0.000000e+00 0.000000e+00
1
Step 291000
Ar 7.550148e-01 0.000000e+00 0.000000e+00
1
Step 292000
Ar 8.148062e-01 0.000000e+00 0.000000e+00
1
Step 293000
Ar 1.077737e+00 0.000000e+00 0.000000e+00
1
Step 294000
Ar 1.120774e+00 0.000000e+00 0.000000e+00
1
Step 295000
Ar 8.973585e-01 0.000000e+00 0.000000e+00
1
Step 296000
Ar 1.119207e+00 0.000000e+00 0.000000e+00
1
Step 297000
Ar 1.183143e+00 0.000000e+00 0.000000e+00
1
Step 298000
Ar 7.916760e-01 0.000000e+00 0.000000e+00
1
Step 299000
Ar 1.052834e+00 0.000000e+00 0.000000e+00
1
Step 300000
Ar 6.451920e-01 0.000000e+00 0.000000e+00
1
Step 301000
Ar 9.087066e-01 0.000000e+00 0.000000e+00
1
Step 302000
Ar 6.140285e-01 0.000000e+00 0.000000e+00
1
Step 303000
Ar 1.070428e+00 0.000000e+00 0.000000e+00
1
Step 304000
Ar 9.304515e-01 0.000000e+00 0.000000e+00
1
Step 305000
Ar 1.124096e+00 0.000000e+00 0.000000e+00
1
Step 306000
Ar 1.123071e+00 0.000000e+00 0.000000e+00
1
Step 307000
Ar 1.120491e+00 0.000000e+00 0.000000e+00
1
Step 308000
Ar 1.125556e+00 0.000000e+00 0.000000e+00
1
Step 309000
Ar 9.078333e-01 0.000000e+00 0.000000e+00
1
Step 310000
Ar 1.018686e+00 0.000000e+00 0.000000e+00
1
Step 311000
Ar 1.064968e+00 0.000000e+00 0.000000e+00
1
Step 312000
Ar 1.052874e+00 0.000000e+00 0.000000e+00
1
Step 313000
Ar 1.135546e+00 0.000000e+00 0.000000e+00
1
Step 314000
Ar 8.535707e-01 0.000000e+00 0.000000e+00
1
Step 315000
Ar 8.586351e-01 0.000000e+00 0.000000e+00
1
Step 316000
Ar 1.050589e+00 0.000000e+00 0.000000e+00
1
Step 317000
Ar 1.242053e+00 0.000000e+00 0.000000e+00
1
Step 318000
Ar 4.584535e-01 0.000000e+00 0.000000e+00
1
Step 319000
Ar 1.180500e+00 0.000000e+00 0.000000e+00
1
Step 320000
Ar 1.124155e+00 0.000000e+00 0.000000e+00
1
Step 321000
Ar 5.935917e-01 0.000000e+00 0.000000e+00
1
Step 322000
Ar 1.083633e+00 0.000000e+00 0.000000e+00
1
Step 323000
Ar -1.165365e+00 0.000000e+00 0.000000e+00
1
Step 324000
Ar -1.000176e+00 0.000000e+00 0.000000e+00
1
Step 325000
Ar -1.009256e+00 0.000000e+00 0.000000e+00
1
Step 326000
Ar -1.012524e+00 0.000000e+00 0.000000e+00
1
Step 327000
Ar -1.007355e+00 0.000000e+00 0.000000e+00
1
Step 328000
Ar -1.010086e+00 0.000000e+00 0.000000e+00
1
Step 329000
Ar -9.983154e-01 0.000000e+00 0.000000e+00
1
Step 330000
Ar -1.008569e+00 0.000000e+00 0.000000e+00
1
Step 331000
Ar -1.001712e+00 0.000000e+00 0.000000e+00
1
Step 332000
Ar -1.003590e+00 0.000000e+00 0.000000e+00
1
Step 333000
Ar -1.018343e+00 0.000000e+00 0.000000e+00
1
Step 334000
Ar -1.018296e+00 0.000000e+00 0.000000e+00
1
Step 335000
Ar -9.997014e-01 0.000000e+00 0.000000e+00
1
Step 336000
Ar -1.017131e+00 0.000000e+00 0.000000e+00
1
Step 337000
Ar -9.702912e-01 0.000000e+00 0.000000e+00
1
Step 338000
Ar -9.680764e-01 0.000000e+00 0.000000e+00
1
Step 339000
Ar -9.627901e-01 0.000000e+00 0.000000e+00
1
Step 340000
Ar -1.030140e+00 0.000000e+00 0.000000e+00
1
Step 341000
Ar -1.025303e+00 0.000000e+00 0.000000e+00
1
Step 342000
Ar -1.027001e+00 0.000000e+00 0.000000e+00
1
Step 343000
Ar -1.022159e+00 0.000000e+00 0.000000e+00
1
Step 344000
Ar -1.021323e+00 0.000000e+00 0.000000e+00
1
Step 345000
Ar -1.025303e+00 0.000000e+00 0.000000e+00
1
Step 346000
Ar -1.021648e+00 0.000000e+00 0.000000e+00
1
Step 347000
Ar -9.974311e-01 0.000000e+00 0.000000e+00
1
Step 348000
Ar -9.957111e-01 0.000000e+00 0.000000e+00
1
Step 349000
Ar -9.619772e-01 0.000000e+00 0.000000e+00
1
Step 350000
Ar -9.439753e-01 0.000000e+00 0.000000e+00
1
Step 351000
Ar -1.032830e+00 0.000000e+00 0.000000e+00
1
Step 352000
Ar -1.032420e+00 0.000000e+00 0.000000e+00
1
Step 353000
Ar -9.646499e-01 0.000000e+00 0.000000e+00
1
Step 354000
Ar -9.939656e-01 0.000000e+00 0.000000e+00
1
Step 355000
Ar -9.722710e-01 0.000000e+00 0.000000e+00
1
Step 356000
Ar -9.357044e-01 0.000000e+00 0.000000e+00
1
Step 357000
Ar -9.462153e-01 0.000000e+00 0.000000e+00
1
Step 358000
Ar -1.031755e+00 0.000000e+00 0.000000e+00
1
Step 359000
Ar -9.265497e-01 0.000000e+00 0.000000e+00
1
Step 360000
Ar -9.316767e-01 0.000000e+00 0.000000e+00
1
Step 361000
Ar -9.283159e-01 0.000000e+00 0.000000e+00
1
Step 362000
Ar -9.322219e-01 0.000000e+00 0.000000e+00
1
Step 363000
Ar -9.346361e-01 0.000000e+00 0.000000e+00
1
Step 364000
Ar -9.296491e-01 0.000000e+00 0.000000e+00
1
Step 365000
Ar -9.372666e-01 0.000000e+00 0.000000e+00
1
Step 366000
Ar -9.244085e-01 0.000000e+00 0.000000e+00
1
Step 367000
Ar -9.167514e-01 0.000000e+00 0.000000e+00
1
Step 368000
Ar -9.950446e-01 0.000000e+00 0.000000e+00
1
Step 369000
Ar -1.072530e+00 0.000000e+00 0.000000e+00
1
Step 370000
Ar -1.073267e+00 0.000000e+00 0.000000e+00
1
Step 371000
Ar -1.080886e+00 0.000000e+00 0.000000e+00
1
Step 372000
Ar -9.631129e-01 0.000000e+00 0.000000e+00
1
Step 373000
Ar -1.019147e+00 0.000000e+00 0.000000e+00
1
Step 374000
Ar -9.552843e-01 0.000000e+00 0.000000e+00
1
Step 375000
Ar -9.050267e-01 0.000000e+00 0.000000e+00
1
Step 376000
Ar -8.971582e-01 0.000000e+00 0.000000e+00
1
Step 377000
Ar -9.004522e-01 0.000000e+00 0.000000e+00
1
Step 378000
Ar -8.996186e-01 0.000000e+00 0.000000e+00
1
Step 379000
Ar -8.654408e-01 0.000000e+00 0.000000e+00
1
Step 380000
Ar -1.005916e+00 0.000000e+00 0.000000e+00
1
Step 381000
Ar -9.938064e-01 0.000000e+00 0.000000e+00
1
Step 382000
Ar -1.011556e+00 0.000000e+00 0.000000e+00
1
Step 383000
Ar -9.645489e-01 0.000000e+00 0.000000e+00
1
Step 384000
Ar -1.027284e+00 0.000000e+00 0.000000e+00
1
Step 385000
Ar -9.958498e-01 0.000000e+00 0.000000e+00
1
Step 386000
Ar -9.643224e-01 0.000000e+00 0.000000e+00
1
Step 387000
Ar -9.936691e-01 0.000000e+00 0.000000e+00
1
Step 388000
Ar -9.920739e-01 0.000000e+00 0.000000e+00
1
Step 389000
Ar -9.802751e-01 0.000000e+00 0.000000e+00
1
Step 390000
Ar -9.679835e-01 0.000000e+00 0.000000e+00
1
Step 391000
Ar -9.673675e-01 0.000000e+00 0.000000e+00
1
Step 392000
Ar -9.632625e-01 0.000000e+00 0.000000e+00
1
Step 393000
Ar -9.663055e-01 0.000000e+00 0.000000e+00
1
Step 394000
Ar -8.907231e-01 0.000000e+00 0.000000e+00
1
Step 395000
Ar -1.077603e+00 0.000000e+00 0.000000e+00
1
Step 396000
Ar -9.954439e-01 0.000000e+00 0.000000e+00
1
Step 397000
Ar -9.117067e-01 0.000000e+00 0.000000e+00
1
Step 398000
Ar -1.057791e+00 0.000000e+00 0.000000e+00
1
Step 399000
Ar -1.024564e+00 0.000000e+00 0.000000e+00
1
Step 400000
Ar -1.037889e+00 0.000000e+00 0.000000e+00
1
Step 401000
Ar -8.838258e-01 0.000000e+00 0.000000e+00
1
Step 402000
Ar -8.780730e-01 0.000000e+00 0.000000e+00
1
Step 403000
Ar -8.732260e-01 0.000000e+00 0.000000e+00
1
Step 404000
Ar -8.781878e-01 0.000000e+00 0.000000e+00
1
Step 405000
Ar -8.768892e-01 0.000000e+00 0.000000e+00
1
Step 406000
Ar -8.781265e-01 0.000000e+00 0.000000e+00
1
Step 407000
Ar -9.729147e-01 0.000000e+00 0.000000e+00
1
Step 408000
Ar -1.090412e+00 0.000000e+00 0.000000e+00
1
Step 409000
Ar -1.088489e+00 0.000000e+00 0.000000e+00
1
Step 410000
Ar -1.086852e+00 0.000000e+00 0.000000e+00
1
Step 411000
Ar -8.729556e-01 0.000000e+00 0.000000e+00
1
Step 412000
Ar -8.698457e-01 0.000000e+00 0.000000e+00
1
Step 413000
Ar -8.624996e-01 0.000000e+00 0.000000e+00
1
Step 414000
Ar -8.725053e-01 0.000000e+00 0.000000e+00
1
Step 415000
Ar -1.078820e+00 0.000000e+00 0.000000e+00
1
Step 416000
Ar -9.872165e-01 0.000000e+00 0.000000e+00
1
Step 417000
Ar -1.104878e+00 0.000000e+00 0.000000e+00
1
Step 418000
Ar -8.619378e-01 0.000000e+00 0.000000e+00
1
Step 419000
Ar -1.008507e+00 0.000000e+00 0.000000e+00
1
Step 420000
Ar -8.551073e-01 0.000000e+00 0.000000e+00
1
Step 421000
Ar -1.127489e+00 0.000000e+00 0.000000e+00
1
Step 422000
Ar -1.105760e+00 0.000000e+00 0.000000e+00
1
Step 423000
Ar -9.657858e-01 0.000000e+00 0.000000e+00
1
Step 424000
Ar -1.028546e+00 0.000000e+00 0.000000e+00
1
Step 425000
Ar -9.851265e-01 0.000000e+00 0.000000e+00
1
Step 426000
Ar -9.249968e-01 0.000000e+00 0.000000e+00
1
Step 427000
Ar -8.807257e-01 0.000000e+00 0.000000e+00
1
Step 428000
Ar -9.711159e-01 0.000000e+00 0.000000e+00
1
Step 429000
Ar -9.816859e-01 0.000000e+00 0.000000e+00
1
Step 430000
Ar -8.632996e-01 0.000000e+00 0.000000e+00
1
Step 431000
Ar -9.134068e-01 0.000000e+00 0.000000e+00
1
Step 432000
Ar -1.155708e+00 0.000000e+00 0.000000e+00
1
Step 433000
Ar -9.063788e-01 0.000000e+00 0.000000e+00
1
Step 434000
Ar -9.225099e-01 0.000000e+00 0.000000e+00
1
Step 435000
Ar -1.003222e+00 0.000000e+00 0.000000e+00
1
Step 436000
Ar -8.527067e-01 0.000000e+00 0.000000e+00
1
Step 437000
Ar -1.153353e+00 0.000000e+00 0.000000e+00
1
Step 438000
Ar -1.077948e+00 0.000000e+00 0.000000e+00
1
Step 439000
Ar -1.061527e+00 0.000000e+00 0.000000e+00
1
Step 440000
Ar -8.978132e-01 0.000000e+00 0.000000e+00
1
Step 441000
Ar -8.010305e-01 0.000000e+00 0.000000e+00
1
Step 442000
Ar -9.838522e-01 0.000000e+00 0.000000e+00
1
Step 443000
Ar -9.845848e-01 0.000000e+00 0.000000e+00
1
Step 444000
Ar -9.654243e-01 0.000000e+00 0.000000e+00
1
Step 445000
Ar -1.068984e+00 0.000000e+00 0.000000e+00
1
Step 446000
Ar -1.107349e+00 0.000000e+00 0.000000e+00
1
Step 447000
Ar -1.105037e+00 0.000000e+00 0.000000e+00
1
Step 448000
Ar -1.021791e+00 0.000000e+00 0.000000e+00
1
Step 449000
Ar -9.328494e-01 0.000000e+00 0.000000e+00
1
Step 450000
Ar -1.105012e+00 0.000000e+00 0.000000e+00
1
Step 451000
Ar -9.863988e-01 0.000000e+00 0.000000e+00
1
Step 452000
Ar -8.516257e-01 0.000000e+00 0.000000e+00
1
Step 453000
Ar -9.605967e-01 0.000000e+00 0.000000e+00
1
Step 454000
Ar -8.259060e-01 0.000000e+00 0.000000e+00
1
Step 455000
Ar -9.831779e-01 0.000000e+00 0.000000e+00
1
Step 456000
Ar -1.045083e+00 0.000000e+00 0.000000e+00
1
Step 457000
Ar -1.115721e+00 0.000000e+00 0.000000e+00
1
Step 458000
Ar -8.438837e-01 0.000000e+00 0.000000e+00
1
Step 459000
Ar -1.013758e+00 0.000000e+00 0.000000e+00
1
Step 460000
Ar -1.044008e+00 0.000000e+00 0.000000e+00
1
Step 461000
Ar -1.200997e+00 0.000000e+00 0.000000e+00
1
Step 462000
Ar -1.056249e+00 0.000000e+00 0.000000e+00
1
Step 463000
Ar -9.179830e-01 0.000000e+00 0.000000e+00
1
Step 464000
Ar -1.116029e+00 0.000000e+00 0.000000e+00
1
Step 465000
Ar -1.115769e+00 0.000000e+00 0.000000e+00
1
Step 466000
Ar -1.117774e+00 0.000000e+00 0.000000e+00
1
Step 467000
Ar -1.061795e+00 0.000000e+00 0.000000e+00
1
Step 468000
Ar -7.405952e-01 0.000000e+00 0.000000e+00
1
Step 469000
Ar -1.105359e+00 0.000000e+00 0.000000e+00
1
Step 470000
Ar -1.076720e+00 0.000000e+00 0.000000e+00
1
Step 471000
Ar -8.049915e-01 0.000000e+00 0.000000e+00
1
Step 472000
Ar -8.404294e-01 0.000000e+00 0.000000e+00
1
Step 473000
Ar -9.459662e-01 0.000000e+00 0.000000e+00
1
Step 474000
Ar -1.005038e+00 0.000000e+00 0.000000e+00
1
Step 475000
Ar -9.640238e-01 0.000000e+00 0.000000e+00
1
Step 476000
Ar -7.724862e-01 0.000000e+00 0.000000e+00
1
Step 477000
Ar -9.869967e-01 0.000000e+00 0.000000e+00
1
Step 478000
Ar -1.089403e+00 0.000000e+00 0.000000e+00
1
Step 479000
Ar -7.365893e-01 0.000000e+00 0.000000e+00
1
Step 480000
Ar -1.130553e+00 0.000000e+00 0.000000e+00
1
Step 481000
Ar -1.115797e+00 0.000000e+00 0.000000e+00
1
Step 482000
Ar -8.325391e-01 0.000000e+00 0.000000e+00
1
Step 483000
Ar -8.162748e-01 0.000000e+00 0.000000e+00
1
Step 484000
Ar -7.553503e-01 0.000000e+00 0.000000e+00
1
Step 485000
Ar -1.131737e+00 0.000000e+00 0.000000e+00
1
Step 486000
Ar -1.055473e+00 0.000000e+00 0.000000e+00
1
Step 487000
Ar -8.573448e-01 0.000000e+00 0.000000e+00
1
Step 488000
Ar -7.260246e-01 0.000000e+00 0.000000e+00
1
Step 489000
Ar -8.530889e-01 0.000000e+00 0.000000e+00
1
Step 490000
Ar -8.532507e-01 0.000000e+00 0.000000e+00
1
Step 491000
Ar -5.231775e-01 0.000000e+00 0.000000e+00
1
Step 492000
Ar -9.142065e-01 0.000000e+00 0.000000e+00
1
Step 493000
Ar -9.283963e-01 0.000000e+00 0.000000e+00
1
Step 494000
Ar -9.281755e-01 0.000000e+00 0.000000e+00
1
Step 495000
Ar -7.283766e-01 0.000000e+00 0.000000e+00
1
Step 496000
Ar -9.894764e-01 0.000000e+00 0.000000e+00
1
Step 497000
Ar -1.041795e+00 0.000000e+00 0.000000e+00
1
Step 498000
Ar -1.080296e+00 0.000000e+00 0.000000e+00
1
Step 499000
Ar -1.008500e+00 0.000000e+00 0.000000e+00
1
Step 500000
Ar -1.056054e+00 0.000000e+00 0.000000e+00
1
Step 501000
Ar -9.052711e-01 0.000000e+00 0.000000e+00
1
Step 502000
Ar -7.810585e-01 0.000000e+00 0.000000e+00
1
Step 503000
Ar -8.768060e-01 0.000000e+00 0.000000e+00
1
Step 504000
Ar -9.819192e-01 0.000000e+00 0.000000e+00
1
Step 505000
Ar -9.864273e-01 0.000000e+00 0.000000e+00
1
Step 506000
Ar -9.862256e-01 0.000000e+00 0.000000e+00
1
Step 507000
Ar -1.084657e+00 0.000000e+00 0.000000e+00
1
Step 508000
Ar -9.543641e-01 0.000000e+00 0.000000e+00
1
Step 509000
Ar -1.192247e+00 0.000000e+00 0.000000e+00
1
Step 510000
Ar -9.388228e-01 0.000000e+00 0.000000e+00
1
Step 511000
Ar -9.292978e-01 0.000000e+00 0.000000e+00
1
Step 512000
Ar -1.021765e+00 0.000000e+00 0.000000e+00
1
Step 513000
Ar -1.055941e+00 0.000000e+00 0.000000e+00
1
Step 514000
Ar -9.609690e-01 0.000000e+00 0.000000e+00
1
Step 515000
Ar -9.195113e-01 0.000000e+00 0.000000e+00
1
Step 516000
Ar -9.052420e-01 0.000000e+00 0.000000e+00
1
Step 517000
Ar -1.077346e+00 0.000000e+00 0.000000e+00
1
Step 518000
Ar -1.015458e+00 0.000000e+00 0.000000e+00
1
Step 519000
Ar -9.185576e-01 0.000000e+00 0.000000e+00
1
Step 520000
Ar -1.015681e+00 0.000000e+00 0.000000e+00
1
Step 521000
Ar -9.143142e-01 0.000000e+00 0.000000e+00
1
Step 522000
Ar -1.051825e+00 0.000000e+00 0.000000e+00
1
Step 523000
Ar -1.053003e+00 0.000000e+00 0.000000e+00
1
Step 524000
Ar -8.362505e-01 0.000000e+00 0.000000e+00
1
Step 525000
Ar -9.161749e-01 0.000000e+00 0.000000e+00
1
Step 526000
Ar -9.742644e-01 0.000000e+00 0.000000e+00
1
Step 527000
Ar -8.389525e-01 0.000000e+00 0.000000e+00
1
Step 528000
Ar -1.251069e+00 0.000000e+00 0.000000e+00
1
Step 529000
Ar -1.074109e+00 0.000000e+00 0.000000e+00
1
Step 530000
Ar -1.143299e+00 0.000000e+00 0.000000e+00
1
Step 531000
Ar -9.633989e-01 0.000000e+00 0.000000e+00
1
Step 532000
Ar -1.025448e+00 0.000000e+00 0.000000e+00
1
Step 533000
Ar -1.042642e+00 0.000000e+00 0.000000e+00
1
Step 534000
Ar -1.079307e+00 0.000000e+00 0.000000e+00
1
Step 535000
Ar -1.156423e+00 0.000000e+00 0.000000e+00
1
Step 536000
Ar -1.089354e+00 0.000000e+00 0.000000e+00
1
Step 537000
Ar -1.094654e+00 0.000000e+00 0.000000e+00
1
Step 538000
Ar -9.667724e-01 0.000000e+00 0.000000e+00
1
Step 539000
Ar -9.174992e-01 0.000000e+00 0.000000e+00
1
Step 540000
Ar -9.039800e-01 0.000000e+00 0.000000e+00
1
Step 541000
Ar -1.122624e+00 0.000000e+00 0.000000e+00
1
Step 542000
Ar -1.123652e+00 0.000000e+00 0.000000e+00
1
Step 543000
Ar -7.903250e-01 0.000000e+00 0.000000e+00
1
Step 544000
Ar -9.698170e-01 0.000000e+00 0.000000e+00
1
Step 545000
Ar -8.529019e-01 0.000000e+00 0.000000e+00
1
Step 546000
Ar -8.566738e-01 0.000000e+00 0.000000e+00
1
Step 547000
Ar -8.449362e-01 0.000000e+00 0.000000e+00
1
Step 548000
Ar -8.428795e-01 0.000000e+00 0.000000e+00
1
Step 549000
Ar -8.453651e-01 0.000000e+00 0.000000e+00
1
Step 550000
Ar -8.437874e-01 0.000000e+00 0.000000e+00
1
Step 551000
Ar -8.477390e-01 0.000000e+00 0.000000e+00
1
Step 552000
Ar -8.456082e-01 0.000000e+00 0.000000e+00
1
Step 553000
Ar -8.498470e-01 0.000000e+00 0.000000e+00
1
Step 554000
Ar -8.450750e-01 0.000000e+00 0.000000e+00
1
Step 555000
Ar -8.483352e-01 0.000000e+00 0.000000e+00
1
Step 556000
Ar -8.450242e-01 0.000000e+00 0.000000e+00
1
Step 557000
Ar -8.433476e-01 0.000000e+00 0.000000e+00
1
Step 558000
Ar -8.455661e-01 0.000000e+00 0.000000e+00
1
Step 559000
Ar -8.417683e-01 0.000000e+00 0.000000e+00
1
Step 560000
Ar -8.418830e-01 0.000000e+00 0.000000e+00
1
Step 561000
Ar -8.340853e-01 0.000000e+00 0.000000e+00
1
Step 562000
Ar -1.055464e+00 0.000000e+00 0.000000e+00
1
Step 563000
Ar -7.535200e-01 0.000000e+00 0.000000e+00
1
Step 564000
Ar -1.163894e+00 0.000000e+00 0.000000e+00
1
Step 565000
Ar -1.257325e+00 0.000000e+00 0.000000e+00
1
Step 566000
Ar -6.350686e-01 0.000000e+00 0.000000e+00
1
Step 567000
Ar -1.063839e+00 0.000000e+00 0.000000e+00
1
Step 568000
Ar -1.020059e+00 0.000000e+00 0.000000e+00
1
Step 569000
Ar -8.330718e-01 0.000000e+00 0.000000e+00
1
Step 570000
Ar -1.221978e+00 0.000000e+00 0.000000e+00
1
Step 571000
Ar -1.125115e+00 0.000000e+00 0.000000e+00
1
Step 572000
Ar -1.124871e+00 0.000000e+00 0.000000e+00
1
Step 573000
Ar -1.126738e+00 0.000000e+00 0.000000e+00
1
Step 574000
Ar -1.128880e+00 0.000000e+00 0.000000e+00
1
Step 575000
Ar -9.662159e-01 0.000000e+00 0.000000e+00
1
Step 576000
Ar -8.558062e-01 0.000000e+00 0.000000e+00
1
Step 577000
Ar -9.944508e-01 0.000000e+00 0.000000e+00
1
Step 578000
Ar -9.430374e-01 0.000000e+00 0.000000e+00
1
Step 579000
Ar -8.361276e-01 0.000000e+00 0.000000e+00
1
Step 580000
Ar -1.130034e+00 0.000000e+00 0.000000e+00
1
Step 581000
Ar -8.624152e-01 0.000000e+00 0.000000e+00
1
Step 582000
Ar -8.604610e-01 0.000000e+00 0.000000e+00
1
Step 583000
Ar -9.389976e-01 0.000000e+00 0.000000e+00
1
Step 584000
Ar -1.028970e+00 0.000000e+00 0.000000e+00
1
Step 585000
Ar -1.127571e+00 0.000000e+00 0.000000e+00
1
Step 586000
Ar -1.175308e+00 0.000000e+00 0.000000e+00
1
Step 587000
Ar -1.002985e+00 0.000000e+00 0.000000e+00
1
Step 588000
Ar -9.300277e-01 0.000000e+00 0.000000e+00
1
Step 589000
Ar -1.096341e+00 0.000000e+00 0.000000e+00
1
Step 590000
Ar -7.856719e-01 0.000000e+00 0.000000e+00
1
Step 591000
Ar -1.039559e+00 0.000000e+00 0.000000e+00
1
Step 592000
Ar -1.021795e+00 0.000000e+00 0.000000e+00
1
Step 593000
Ar -1.126827e+00 0.000000e+00 0.000000e+00
1
Step 594000
Ar -1.116611e+00 0.000000e+00 0.000000e+00
1
Step 595000
Ar -1.021670e+00 0.000000e+00 0.000000e+00
1
Step 596000
Ar -1.018143e+00 0.000000e+00 0.000000e+00
1
Step 597000
Ar -9.944975e-01 0.000000e+00 0.000000e+00
1
Step 598000
Ar -8.314774e-01 0.000000e+00 0.000000e+00
1
Step 599000
Ar -1.009161e+00 0.000000e+00 0.000000e+00
1
Step 600000
Ar -7.595683e-01 0.000000e+00 0.000000e+00
1
Step 601000
Ar -1.169221e+00 0.000000e+00 0.000000e+00
1
Step 602000
Ar -1.069503e+00 0.000000e+00 0.000000e+00
1
Step 603000
Ar -9.671179e-01 0.000000e+00 0.000000e+00
1
Step 604000
Ar -8.625938e-01 0.000000e+00 0.000000e+00
1
Step 605000
Ar -7.967793e-01 0.000000e+00 0.000000e+00
1
Step 606000
Ar -1.243575e+00 0.000000e+00 0.000000e+00
1
Step 607000
Ar -7.077671e-01 0.000000e+00 0.000000e+00
1
Step 608000
Ar -8.203375e-01 0.000000e+00 0.000000e+00
1
Step 609000
Ar -8.850151e-01 0.000000e+00 0.000000e+00
1
Step 610000
Ar -1.059861e+00 0.000000e+00 0.000000e+00
1
Step 611000
Ar -9.013040e-01 0.000000e+00 0.000000e+00
1
Step 612000
Ar -1.053879e+00 0.000000e+00 0.000000e+00
1
Step 613000
Ar -1.147254e+00 0.000000e+00 0.000000e+00
1
Step 614000
Ar -1.119284e+00 0.000000e+00 0.000000e+00
1
Step 615000
Ar -1.100696e+00 0.000000e+00 0.000000e+00
1
Step 616000
Ar -1.125846e+00 0.000000e+00 0.000000e+00
1
Step 617000
Ar -9.163219e-01 0.000000e+00 0.000000e+00
1
Step 618000
Ar -1.106763e+00 0.000000e+00 0.000000e+00
1
Step 619000
Ar -1.032245e+00 0.000000e+00 0.000000e+00
1
Step 620000
Ar -1.121629e+00 0.000000e+00 0.000000e+00
1
Step 621000
Ar -1.143695e+00 0.000000e+00 0.000000e+00
1
Step 622000
Ar -1.133260e+00 0.000000e+00 0.000000e+00
1
Step 623000
Ar -1.126785e+00 0.000000e+00 0.000000e+00
1
Step 624000
Ar -1.134038e+00 0.000000e+00 0.000000e+00
1
Step 625000
Ar -9.460035e-01 0.000000e+00 0.000000e+00
1
Step 626000
Ar -1.046801e+00 0.000000e+00 0.000000e+00
1
Step 627000
Ar -1.012443e+00 0.000000e+00 0.000000e+00
1
Step 628000
Ar -1.060784e+00 0.000000e+00 0.000000e+00
1
Step 629000
Ar -8.692041e-01 0.000000e+00 0.000000e+00
1
Step 630000
Ar -9.309928e-01 0.000000e+00 0.000000e+00
1
Step 631000
Ar -1.111606e+00 0.000000e+00 0.000000e+00
1
Step 632000
Ar -1.042423e+00 0.000000e+00 0.000000e+00
1
Step 633000
Ar -8.865357e-01 0.000000e+00 0.000000e+00
1
Step 634000
Ar -1.039894e+00 0.000000e+00 0.000000e+00
1
Step 635000
Ar -9.568452e-01 0.000000e+00 0.000000e+00
1
Step 636000
Ar -8.585911e-01 0.000000e+00 0.000000e+00
1
Step 637000
Ar -8.974824e-01 0.000000e+00 0.000000e+00
1
Step 638000
Ar -9.586390e-01 0.000000e+00 0.000000e+00
1
Step 639000
Ar -1.169363e+00 0.000000e+00 0.000000e+00
1
Step 640000
Ar -8.790434e-01 0.000000e+00 0.000000e+00
1
Step 641000
Ar -1.162553e+00 0.000000e+00 0.000000e+00
1
Step 642000
Ar -1.025408e+00 0.000000e+00 0.000000e+00
1
Step 643000
Ar -9.608838e-01 0.000000e+00 0.000000e+00
1
Step 644000
Ar -8.750002e-01 0.000000e+00 0.000000e+00
1
Step 645000
Ar -8.963462e-01 0.000000e+00 0.000000e+00
1
Step 646000
Ar -8.945604e-01 0.000000e+00 0.000000e+00
1
Step 647000
Ar -8.779690e-01 0.000000e+00 0.000000e+00
1
Step 648000
Ar -8.028928e-01 0.000000e+00 0.000000e+00
1
Step 649000