1
Step 120000
Ar 9.767715e-01 0.000000e+00 0.000000e+00
1
Step 121000
Ar 9.890823e-01 0.000000e+00 0.000000e+00
1
Step 122000
Ar 9.823247e-01 0.000000e+00 0.000000e+00
1
Step 123000
Ar 1.006789e+00 0.000000e+00 0.000000e+00
1
Step 124000
Ar 1.011077e+00 0.000000e+00 0.000000e+00
1
Step 125000
Ar 1.018049e+00 0.000000e+00 0.000000e+00
1
Step 126000
Ar 1.044680e+00 0.000000e+00 0.000000e+00
1
Step 127000
Ar 1.045833e+00 0.000000e+00 0.000000e+00
1
Step 128000
Ar 1.049855e+00 0.000000e+00 0.000000e+00
1
Step 129000
Ar 1.060619e+00 0.000000e+00 0.000000e+00
1
Step 130000
Ar 1.056862e+00 0.000000e+00 0.000000e+00
1
Step 131000
Ar 1.060378e+00 0.000000e+00 0.000000e+00
1
Step 132000
Ar 1.063329e+00 0.000000e+00 0.000000e+00
1
Step 133000
Ar 1.062126e+00 0.000000e+00 0.000000e+00
1
Step 134000
Ar 1.058378e+00 0.000000e+00 0.000000e+00
1
Step 135000
Ar 1.061367e+00 0.000000e+00 0.000000e+00
1
Step 136000
Ar 1.064409e+00 0.000000e+00 0.000000e+00
1
Step 137000
Ar 9.437062e-01 0.000000e+00 0.000000e+00
1
Step 138000
Ar 9.771141e-01 0.000000e+00 0.000000e+00
1
Step 139000
Ar 9.689731e-01 0.000000e+00 0.000000e+00
1
Step 140000
Ar 9.782605e-01 0.000000e+00 0.000000e+00
1
Step 141000
Ar 9.800591e-01 0.000000e+00 0.000000e+00
1
Step 142000
Ar 9.731195e-01 0.000000e+00 0.000000e+00
1
Step 143000
Ar 9.706581e-01 0.000000e+00 0.000000e+00
1
Step 144000
Ar 9.388093e-01 0.000000e+00 0.000000e+00
1
Step 145000
Ar 9.435691e-01 0.000000e+00 0.000000e+00
1
Step 146000
Ar 9.417082e-01 0.000000e+00 0.000000e+00
1
Step 147000
Ar 9.255624e-01 0.000000e+00 0.000000e+00
1
Step 148000
Ar 9.309853e-01 0.000000e+00 0.000000e+00
1
Step 149000
Ar 9.360903e-01 0.000000e+00 0.000000e+00
1
Step 150000
Ar 9.348394e-01 0.000000e+00 0.000000e+00
1
Step 151000
Ar 1.072149e+00 0.000000e+00 0.000000e+00
1
Step 152000
Ar 1.077953e+00 0.000000e+00 0.000000e+00
1
Step 153000
Ar 9.427880e-01 0.000000e+00 0.000000e+00
1
Step 154000
Ar 9.207284e-01 0.000000e+00 0.000000e+00
1
Step 155000
Ar 9.099937e-01 0.000000e+00 0.000000e+00
1
Step 156000
Ar 9.004320e-01 0.000000e+00 0.000000e+00
1
Step 157000
Ar 9.053466e-01 0.000000e+00 0.000000e+00
1
Step 158000
Ar 9.075924e-01 0.000000e+00 0.000000e+00
1
Step 159000
Ar 9.013495e-01 0.000000e+00 0.000000e+00
1
Step 160000
Ar 9.783832e-01 0.000000e+00 0.000000e+00
1
Step 161000
Ar 1.007361e+00 0.000000e+00 0.000000e+00
1
Step 162000
Ar 1.008923e+00 0.000000e+00 0.000000e+00
1
Step 163000
Ar 1.007039e+00 0.000000e+00 0.000000e+00
1
Step 164000
Ar 1.006870e+00 0.000000e+00 0.000000e+00
1
Step 165000
Ar 1.004557e+00 0.000000e+00 0.000000e+00
1
Step 166000
Ar 1.004346e+00 0.000000e+00 0.000000e+00
1
Step 167000
Ar 1.003460e+00 0.000000e+00 0.000000e+00
1
Step 168000
Ar 1.003975e+00 0.000000e+00 0.000000e+00
1
Step 169000
Ar 1.006799e+00 0.000000e+00 0.000000e+00
1
Step 170000
Ar 1.005692e+00 0.000000e+00 0.000000e+00
1
Step 171000
Ar 1.026735e+00 0.000000e+00 0.000000e+00
1
Step 172000
Ar 9.869536e-01 0.000000e+00 0.000000e+00
1
Step 173000
Ar 1.074937e+00 0.000000e+00 0.000000e+00
1
Step 174000
Ar 1.074364e+00 0.000000e+00 0.000000e+00
1
Step 175000
Ar 1.074599e+00 0.000000e+00 0.000000e+00
1
Step 176000
Ar 1.075007e+00 0.000000e+00 0.000000e+00
1
Step 177000
Ar 1.074123e+00 0.000000e+00 0.000000e+00
1
Step 178000
Ar 1.074800e+00 0.000000e+00 0.000000e+00
1
Step 179000
Ar 1.073893e+00 0.000000e+00 0.000000e+00
1
Step 180000
Ar 1.073747e+00 0.000000e+00 0.000000e+00
1
Step 181000
Ar 1.078460e+00 0.000000e+00 0.000000e+00
1
Step 182000
Ar 1.001844e+00 0.000000e+00 0.000000e+00
1
Step 183000
Ar 1.089815e+00 0.000000e+00 0.000000e+00
1
Step 184000
Ar 1.035608e+00 0.000000e+00 0.000000e+00
1
Step 185000
Ar 9.056561e-01 0.000000e+00 0.000000e+00
1
Step 186000
Ar 9.066705e-01 0.000000e+00 0.000000e+00
1
Step 187000
Ar 9.113604e-01 0.000000e+00 0.000000e+00
1
Step 188000
Ar 9.031540e-01 0.000000e+00 0.000000e+00
1
Step 189000
Ar 9.044402e-01 0.000000e+00 0.000000e+00
1
Step 190000
Ar 9.058858e-01 0.000000e+00 0.000000e+00
1
Step 191000
Ar 9.632273e-01 0.000000e+00 0.000000e+00
1
Step 192000
Ar 1.026982e+00 0.000000e+00 0.000000e+00
1
Step 193000
Ar 9.789105e-01 0.000000e+00 0.000000e+00
1
Step 194000
Ar 1.066537e+00 0.000000e+00 0.000000e+00
1
Step 195000
Ar 1.072651e+00 0.000000e+00 0.000000e+00
1
Step 196000
Ar 1.077702e+00 0.000000e+00 0.000000e+00
1
Step 197000
Ar 1.097123e+00 0.000000e+00 0.000000e+00
1
Step 198000
Ar 8.925686e-01 0.000000e+00 0.000000e+00
1
Step 199000
Ar 8.927313e-01 0.000000e+00 0.000000e+00
1
Step 200000
Ar 1.083736e+00 0.000000e+00 0.000000e+00
1
Step 201000
Ar 1.080192e+00 0.000000e+00 0.000000e+00
1
Step 202000
Ar 1.086536e+00 0.000000e+00 0.000000e+00
1
Step 203000
Ar 1.082400e+00 0.000000e+00 0.000000e+00
1
Step 204000
Ar 1.083461e+00 0.000000e+00 0.000000e+00
1
Step 205000
Ar 1.055507e+00 0.000000e+00 0.000000e+00
1
Step 206000
Ar 1.038869e+00 0.000000e+00 0.000000e+00
1
Step 207000
Ar 1.133243e+00 0.000000e+00 0.000000e+00
1
Step 208000
Ar 9.531907e-01 0.000000e+00 0.000000e+00
1
Step 209000
Ar 9.829306e-01 0.000000e+00 0.000000e+00
1
Step 210000
Ar 8.328327e-01 0.000000e+00 0.000000e+00
1
Step 211000
Ar 1.008001e+00 0.000000e+00 0.000000e+00
1
Step 212000
Ar 1.109706e+00 0.000000e+00 0.000000e+00
1
Step 213000
Ar 1.185327e+00 0.000000e+00 0.000000e+00
1
Step 214000
Ar 1.080572e+00 0.000000e+00 0.000000e+00
1
Step 215000
Ar 8.927086e-01 0.000000e+00 0.000000e+00
1
Step 216000
Ar 8.924149e-01 0.000000e+00 0.000000e+00
1
Step 217000
Ar 8.915773e-01 0.000000e+00 0.000000e+00
1
Step 218000
Ar 8.954589e-01 0.000000e+00 0.000000e+00
1
Step 219000
Ar 8.918126e-01 0.000000e+00 0.000000e+00
1
Step 220000
Ar 8.891739e-01 0.000000e+00 0.000000e+00
1
Step 221000
Ar 8.845339e-01 0.000000e+00 0.000000e+00
1
Step 222000
Ar 8.917700e-01 0.000000e+00 0.000000e+00
1
Step 223000
Ar 8.831948e-01 0.000000e+00 0.000000e+00
1
Step 224000
Ar 8.873704e-01 0.000000e+00 0.000000e+00
1
Step 225000
Ar 8.675731e-01 0.000000e+00 0.000000e+00
1
Step 226000
Ar 8.695288e-01 0.000000e+00 0.000000e+00
1
Step 227000
Ar 7.446809e-01 0.000000e+00 0.000000e+00
1
Step 228000
Ar 8.650443e-01 0.000000e+00 0.000000e+00
1
Step 229000
Ar 9.294969e-01 0.000000e+00 0.000000e+00
1
Step 230000
Ar 1.023930e+00 0.000000e+00 0.000000e+00
1
Step 231000
Ar 1.192564e+00 0.000000e+00 0.000000e+00
1
Step 232000
Ar 8.851527e-01 0.000000e+00 0.000000e+00
1
Step 233000
Ar 1.025174e+00 0.000000e+00 0.000000e+00
1
Step 234000
Ar 1.030153e+00 0.000000e+00 0.000000e+00
1
Step 235000
Ar 1.022752e+00 0.000000e+00 0.000000e+00
1
Step 236000
Ar 1.137544e+00 0.000000e+00 0.000000e+00
1
Step 237000
Ar 8.700833e-01 0.000000e+00 0.000000e+00
1
Step 238000
Ar 8.740792e-01 0.000000e+00 0.000000e+00
1
Step 239000
Ar 8.746782e-01 0.000000e+00 0.000000e+00
1
Step 240000
Ar 1.020782e+00 0.000000e+00 0.000000e+00
1
Step 241000
Ar 9.323097e-01 0.000000e+00 0.000000e+00
1
Step 242000
Ar 8.678705e-01 0.000000e+00 0.000000e+00
1
Step 243000
Ar 8.725793e-01 0.000000e+00 0.000000e+00
1
Step 244000
Ar 8.650824e-01 0.000000e+00 0.000000e+00
1
Step 245000
Ar 1.009970e+00 0.000000e+00 0.000000e+00
1
Step 246000
Ar 9.103639e-01 0.000000e+00 0.000000e+00
1
Step 247000
Ar 1.099248e+00 0.000000e+00 0.000000e+00
1
Step 248000
Ar 9.688978e-01 0.000000e+00 0.000000e+00
1
Step 249000
Ar 1.063240e+00 0.000000e+00 0.000000e+00
1
Step 250000
Ar 9.810926e-01 0.000000e+00 0.000000e+00
1
Step 251000
Ar 9.563271e-01 0.000000e+00 0.000000e+00
1
Step 252000
Ar 9.780710e-01 0.000000e+00 0.000000e+00
1
Step 253000
Ar 9.774443e-01 0.000000e+00 0.000000e+00
1
Step 254000
Ar 9.700637e-01 0.000000e+00 0.000000e+00
1
Step 255000
Ar 9.648424e-01 0.000000e+00 0.000000e+00
1
Step 256000
Ar 9.572640e-01 0.000000e+00 0.000000e+00
1
Step 257000
Ar 9.539836e-01 0.000000e+00 0.000000e+00
1
Step 258000
Ar 9.629627e-01 0.000000e+00 0.000000e+00
1
Step 259000
Ar 9.615167e-01 0.000000e+00 0.000000e+00
1
Step 260000
Ar 1.046580e+00 0.000000e+00 0.000000e+00
1
Step 261000
Ar 8.562083e-01 0.000000e+00 0.000000e+00
1
Step 262000
Ar 8.549409e-01 0.000000e+00 0.000000e+00
1
Step 263000
Ar 8.525525e-01 0.000000e+00 0.000000e+00
1
Step 264000
Ar 8.546283e-01 0.000000e+00 0.000000e+00
1
Step 265000
Ar 8.539277e-01 0.000000e+00 0.000000e+00
1
Step 266000
Ar 7.958055e-01 0.000000e+00 0.000000e+00
1
Step 267000
Ar 5.978961e-01 0.000000e+00 0.000000e+00
1
Step 268000
Ar 1.022464e+00 0.000000e+00 0.000000e+00
1
Step 269000
Ar 9.684312e-01 0.000000e+00 0.000000e+00
1
Step 270000
Ar 9.820851e-01 0.000000e+00 0.000000e+00
1
Step 271000
Ar 1.105001e+00 0.000000e+00 0.000000e+00
1
Step 272000
Ar 9.427372e-01 0.000000e+00 0.000000e+00
1
Step 273000
Ar 1.023607e+00 0.000000e+00 0.000000e+00
1
Step 274000
Ar 1.021031e+00 0.000000e+00 0.000000e+00
1
Step 275000
Ar 1.018080e+00 0.000000e+00 0.000000e+00
1
Step 276000
Ar 1.021850e+00 0.000000e+00 0.000000e+00
1
Step 277000
Ar 9.530954e-01 0.000000e+00 0.000000e+00
1
Step 278000
Ar 1.062644e+00 0.000000e+00 0.000000e+00
1
Step 279000
Ar 1.096536e+00 0.000000e+00 0.000000e+00
1
Step 280000
Ar 9.493224e-01 0.000000e+00 0.000000e+00
1
Step 281000
Ar 7.409718e-01 0.000000e+00 0.000000e+00
1
Step 282000
Ar 1.017146e+00 0.000000e+00 0.000000e+00
1
Step 283000
Ar 8.106397e-01 0.000000e+00 0.000000e+00
1
Step 284000
Ar 8.926527e-01 0.000000e+00 0.000000e+00
1
Step 285000
Ar 8.944339e-01 0.000000e+00 0.000000e+00
1
Step 286000
Ar 8.932043e-01 0.000000e+00 0.000000e+00
1
Step 287000
Ar 1.162376e+00 0.000000e+00 0.000000e+00
1
Step 288000
Ar 1.070222e+00 0.000000e+00 0.000000e+00
1
Step 289000
Ar 1.005280e+00 0.000000e+00 0.000000e+00
1
Step 290000
Ar 1.019907e+00 0.000000e+00 0.000000e+00
1
Step 291000
Ar 1.103290e+00 0.000000e+00 0.000000e+00
1
Step 292000
Ar 1.065399e+00 0.000000e+00 0.000000e+00
1
Step 293000
Ar 1.003693e+00 0.000000e+00 0.000000e+00
1
Step 294000
Ar 1.033588e+00 0.000000e+00 0.000000e+00
1
Step 295000
Ar 8.976794e-01 0.000000e+00 0.000000e+00
1
Step 296000
Ar 9.590133e-01 0.000000e+00 0.000000e+00
1
Step 297000
Ar 1.097776e+00 0.000000e+00 0.000000e+00
1
Step 298000
Ar 9.537252e-01 0.000000e+00 0.000000e+00
1
Step 299000
Ar 9.567999e-01 0.000000e+00 0.000000e+00
1
Step 300000
Ar 1.084917e+00 0.000000e+00 0.000000e+00
1
Step 301000
Ar 8.814709e-01 0.000000e+00 0.000000e+00
1
Step 302000
Ar 1.056476e+00 0.000000e+00 0.000000e+00
1
Step 303000
Ar 8.175923e-01 0.000000e+00 0.000000e+00
1
Step 304000
Ar 1.096946e+00 0.000000e+00 0.000000e+00
1
Step 305000
Ar 1.096063e+00 0.000000e+00 0.000000e+00
1
Step 306000
Ar 7.006759e-01 0.000000e+00 0.000000e+00
1
Step 307000
Ar 9.569461e-01 0.000000e+00 0.000000e+00
1
Step 308000
Ar 9.836174e-01 0.000000e+00 0.000000e+00
1
Step 309000
Ar 8.725568e-01 0.000000e+00 0.000000e+00
1
Step 310000
Ar 9.688023e-01 0.000000e+00 0.000000e+00
1
Step 311000
Ar 9.675927e-01 0.000000e+00 0.000000e+00
1
Step 312000
Ar 1.089024e+00 0.000000e+00 0.000000e+00
1
Step 313000
Ar 9.638585e-01 0.000000e+00 0.000000e+00
1
Step 314000
Ar 9.649883e-01 0.000000e+00 0.000000e+00
1
Step 315000
Ar 9.612406e-01 0.000000e+00 0.000000e+00
1
Step 316000
Ar 9.638552e-01 0.000000e+00 0.000000e+00
1
Step 317000
Ar 9.648147e-01 0.000000e+00 0.000000e+00
1
Step 318000
Ar 9.637376e-01 0.000000e+00 0.000000e+00
1
Step 319000
Ar 9.654270e-01 0.000000e+00 0.000000e+00
1
Step 320000
Ar 9.665935e-01 0.000000e+00 0.000000e+00
1
Step 321000
Ar 9.630762e-01 0.000000e+00 0.000000e+00
1
Step 322000
Ar 9.572863e-01 0.000000e+00 0.000000e+00
1
Step 323000
Ar 9.562055e-01 0.000000e+00 0.000000e+00
1
Step 324000
Ar 9.508602e-01 0.000000e+00 0.000000e+00
1
Step 325000
Ar 9.638723e-01 0.000000e+00 0.000000e+00
1
Step 326000
Ar 9.510281e-01 0.000000e+00 0.000000e+00
1
Step 327000
Ar 9.562029e-01 0.000000e+00 0.000000e+00
1
Step 328000
Ar 9.515927e-01 0.000000e+00 0.000000e+00
1
Step 329000
Ar 9.495626e-01 0.000000e+00 0.000000e+00
1
Step 330000
Ar 9.505420e-01 0.000000e+00 0.000000e+00
1
Step 331000
Ar 9.572433e-01 0.000000e+00 0.000000e+00
1
Step 332000
Ar 9.556631e-01 0.000000e+00 0.000000e+00
1
Step 333000
Ar 9.547129e-01 0.000000e+00 0.000000e+00
1
Step 334000
Ar 9.437449e-01 0.000000e+00 0.000000e+00
1
Step 335000
Ar 9.463330e-01 0.000000e+00 0.000000e+00
1
Step 336000
Ar 9.456573e-01 0.000000e+00 0.000000e+00
1
Step 337000
Ar 9.547053e-01 0.000000e+00 0.000000e+00
1
Step 338000
Ar 9.457751e-01 0.000000e+00 0.000000e+00
1
Step 339000
Ar 9.481394e-01 0.000000e+00 0.000000e+00
1
Step 340000
Ar 9.573775e-01 0.000000e+00 0.000000e+00
1
Step 341000
Ar 9.504902e-01 0.000000e+00 0.000000e+00
1
Step 342000
Ar 9.465186e-01 0.000000e+00 0.000000e+00
1
Step 343000
Ar 9.497510e-01 0.000000e+00 0.000000e+00
1
Step 344000
Ar 9.528363e-01 0.000000e+00 0.000000e+00
1
Step 345000
Ar 9.521654e-01 0.000000e+00 0.000000e+00
1
Step 346000
Ar 1.154103e+00 0.000000e+00 0.000000e+00
1
Step 347000
Ar 8.771359e-01 0.000000e+00 0.000000e+00
1
Step 348000
Ar 1.021112e+00 0.000000e+00 0.000000e+00
1
Step 349000
Ar 9.336835e-01 0.000000e+00 0.000000e+00
1
Step 350000
Ar 8.821680e-01 0.000000e+00 0.000000e+00
1
Step 351000
Ar 8.707987e-01 0.000000e+00 0.000000e+00
1
Step 352000
Ar 7.094270e-01 0.000000e+00 0.000000e+00
1
Step 353000
Ar 8.012204e-01 0.000000e+00 0.000000e+00
1
Step 354000
Ar 1.059081e+00 0.000000e+00 0.000000e+00
1
Step 355000
Ar 7.089377e-01 0.000000e+00 0.000000e+00
1
Step 356000
Ar 1.168254e+00 0.000000e+00 0.000000e+00
1
Step 357000
Ar 9.073024e-01 0.000000e+00 0.000000e+00
1
Step 358000
Ar 9.887183e-01 0.000000e+00 0.000000e+00
1
Step 359000
Ar 1.112827e+00 0.000000e+00 0.000000e+00
1
Step 360000
Ar 1.079149e+00 0.000000e+00 0.000000e+00
1
Step 361000
Ar 1.085769e+00 0.000000e+00 0.000000e+00
1
Step 362000
Ar 1.023503e+00 0.000000e+00 0.000000e+00
1
Step 363000
Ar 8.824807e-01 0.000000e+00 0.000000e+00
1
Step 364000
Ar 8.792581e-01 0.000000e+00 0.000000e+00
1
Step 365000
Ar 1.031421e+00 0.000000e+00 0.000000e+00
1
Step 366000
Ar 1.089264e+00 0.000000e+00 0.000000e+00
1
Step 367000
Ar 9.917595e-01 0.000000e+00 0.000000e+00
1
Step 368000
Ar 9.670478e-01 0.000000e+00 0.000000e+00
1
Step 369000
Ar 8.083225e-01 0.000000e+00 0.000000e+00
1
Step 370000
Ar 1.109186e+00 0.000000e+00 0.000000e+00
1
Step 371000
Ar 9.847970e-01 0.000000e+00 0.000000e+00
1
Step 372000
Ar 9.880138e-01 0.000000e+00 0.000000e+00
1
Step 373000
Ar 1.076250e+00 0.000000e+00 0.000000e+00
1
Step 374000
Ar 1.025257e+00 0.000000e+00 0.000000e+00
1
Step 375000
Ar 1.045674e+00 0.000000e+00 0.000000e+00
1
Step 376000
Ar 7.575456e-01 0.000000e+00 0.000000e+00
1
Step 377000
Ar 9.612783e-01 0.000000e+00 0.000000e+00
1
Step 378000
Ar 9.553830e-01 0.000000e+00 0.000000e+00
1
Step 379000
Ar -9.369887e-01 0.000000e+00 0.000000e+00
1
Step 380000
Ar -9.726072e-01 0.000000e+00 0.000000e+00
1
Step 381000
Ar -9.714764e-01 0.000000e+00 0.000000e+00
1
Step 382000
Ar -9.673973e-01 0.000000e+00 0.000000e+00
1
Step 383000
Ar -9.684045e-01 0.000000e+00 0.000000e+00
1
Step 384000
Ar -9.662239e-01 0.000000e+00 0.000000e+00
1
Step 385000
Ar -9.735603e-01 0.000000e+00 0.000000e+00
1
Step 386000
Ar -9.757453e-01 0.000000e+00 0.000000e+00
1
Step 387000
Ar -9.712998e-01 0.000000e+00 0.000000e+00
1
Step 388000
Ar -1.001517e+00 0.000000e+00 0.000000e+00
1
Step 389000
Ar -1.004105e+00 0.000000e+00 0.000000e+00
1
Step 390000
Ar -9.977925e-01 0.000000e+00 0.000000e+00
1
Step 391000
Ar -1.006854e+00 0.000000e+00 0.000000e+00
1
Step 392000
Ar -1.011403e+00 0.000000e+00 0.000000e+00
1
Step 393000
Ar -1.032387e+00 0.000000e+00 0.000000e+00
1
Step 394000
Ar -1.026450e+00 0.000000e+00 0.000000e+00
1
Step 395000
Ar -1.026511e+00 0.000000e+00 0.000000e+00
1
Step 396000
Ar -1.026797e+00 0.000000e+00 0.000000e+00
1
Step 397000
Ar -1.026733e+00 0.000000e+00 0.000000e+00
1
Step 398000
Ar -1.027558e+00 0.000000e+00 0.000000e+00
1
Step 399000
Ar -1.021634e+00 0.000000e+00 0.000000e+00
1
Step 400000
Ar -1.021270e+00 0.000000e+00 0.000000e+00
1
Step 401000
Ar -1.024051e+00 0.000000e+00 0.000000e+00
1
Step 402000
Ar -1.017919e+00 0.000000e+00 0.000000e+00
1
Step 403000
Ar -1.022986e+00 0.000000e+00 0.000000e+00
1
Step 404000
Ar -1.027568e+00 0.000000e+00 0.000000e+00
1
Step 405000
Ar -1.024449e+00 0.000000e+00 0.000000e+00
1
Step 406000
Ar -1.023920e+00 0.000000e+00 0.000000e+00
1
Step 407000
Ar -1.023482e+00 0.000000e+00 0.000000e+00
1
Step 408000
Ar -1.000096e+00 0.000000e+00 0.000000e+00
1
Step 409000
Ar -9.958752e-01 0.000000e+00 0.000000e+00
1
Step 410000
Ar -1.053523e+00 0.000000e+00 0.000000e+00
1
Step 411000
Ar -1.050225e+00 0.000000e+00 0.000000e+00
1
Step 412000
Ar -1.052903e+00 0.000000e+00 0.000000e+00
1
Step 413000
Ar -1.051017e+00 0.000000e+00 0.000000e+00
1
Step 414000
Ar -1.053590e+00 0.000000e+00 0.000000e+00
1
Step 415000
Ar -1.050389e+00 0.000000e+00 0.000000e+00
1
Step 416000
Ar -1.056573e+00 0.000000e+00 0.000000e+00
1
Step 417000
Ar -9.590125e-01 0.000000e+00 0.000000e+00
1
Step 418000
Ar -9.551800e-01 0.000000e+00 0.000000e+00
1
Step 419000
Ar -9.548236e-01 0.000000e+00 0.000000e+00
1
Step 420000
Ar -9.577810e-01 0.000000e+00 0.000000e+00
1
Step 421000
Ar -9.962188e-01 0.000000e+00 0.000000e+00
1
Step 422000
Ar -1.017424e+00 0.000000e+00 0.000000e+00
1
Step 423000
Ar -9.765157e-01 0.000000e+00 0.000000e+00
1
Step 424000
Ar -9.832215e-01 0.000000e+00 0.000000e+00
1
Step 425000
Ar -9.381895e-01 0.000000e+00 0.000000e+00
1
Step 426000
Ar -9.276191e-01 0.000000e+00 0.000000e+00
1
Step 427000
Ar -1.077699e+00 0.000000e+00 0.000000e+00
1
Step 428000
Ar -9.157198e-01 0.000000e+00 0.000000e+00
1
Step 429000
Ar -9.107041e-01 0.000000e+00 0.000000e+00
1
Step 430000
Ar -9.117692e-01 0.000000e+00 0.000000e+00
1
Step 431000
Ar -9.073911e-01 0.000000e+00 0.000000e+00
1
Step 432000
Ar -9.108074e-01 0.000000e+00 0.000000e+00
1
Step 433000
Ar -9.086955e-01 0.000000e+00 0.000000e+00
1
Step 434000
Ar -9.063081e-01 0.000000e+00 0.000000e+00
1
Step 435000
Ar -9.108704e-01 0.000000e+00 0.000000e+00
1
Step 436000
Ar -9.082639e-01 0.000000e+00 0.000000e+00
1
Step 437000
Ar -9.055537e-01 0.000000e+00 0.000000e+00
1
Step 438000
Ar -1.055427e+00 0.000000e+00 0.000000e+00
1
Step 439000
Ar -8.970747e-01 0.000000e+00 0.000000e+00
1
Step 440000
Ar -9.296559e-01 0.000000e+00 0.000000e+00
1
Step 441000
Ar -1.067554e+00 0.000000e+00 0.000000e+00
1
Step 442000
Ar -1.075356e+00 0.000000e+00 0.000000e+00
1
Step 443000
Ar -1.067926e+00 0.000000e+00 0.000000e+00
1
Step 444000
Ar -1.028748e+00 0.000000e+00 0.000000e+00
1
Step 445000
Ar -1.061911e+00 0.000000e+00 0.000000e+00
1
Step 446000
Ar -9.805285e-01 0.000000e+00 0.000000e+00
1
Step 447000
Ar -9.972447e-01 0.000000e+00 0.000000e+00
1
Step 448000
Ar -8.007669e-01 0.000000e+00 0.000000e+00
1
Step 449000
Ar -9.306521e-01 0.000000e+00 0.000000e+00
1
Step 450000
Ar -1.124252e+00 0.000000e+00 0.000000e+00
1
Step 451000
Ar -9.700087e-01 0.000000e+00 0.000000e+00
1
Step 452000
Ar -9.834286e-01 0.000000e+00 0.000000e+00
1
Step 453000
Ar -1.021904e+00 0.000000e+00 0.000000e+00
1
Step 454000
Ar -9.812201e-01 0.000000e+00 0.000000e+00
1
Step 455000
Ar -1.003845e+00 0.000000e+00 0.000000e+00
1
Step 456000
Ar -1.001309e+00 0.000000e+00 0.000000e+00
1
Step 457000
Ar -9.804882e-01 0.000000e+00 0.000000e+00
1
Step 458000
Ar -1.030763e+00 0.000000e+00 0.000000e+00
1
Step 459000
Ar -1.047531e+00 0.000000e+00 0.000000e+00
1
Step 460000
Ar -1.060143e+00 0.000000e+00 0.000000e+00
1
Step 461000
Ar -8.944092e-01 0.000000e+00 0.000000e+00
1
Step 462000
Ar -1.022174e+00 0.000000e+00 0.000000e+00
1
Step 463000
Ar -8.965880e-01 0.000000e+00 0.000000e+00
1
Step 464000
Ar -8.986028e-01 0.000000e+00 0.000000e+00
1
Step 465000
Ar -8.948332e-01 0.000000e+00 0.000000e+00
1
Step 466000
Ar -1.163692e+00 0.000000e+00 0.000000e+00
1
Step 467000
Ar -1.068480e+00 0.000000e+00 0.000000e+00
1
Step 468000
Ar -1.055712e+00 0.000000e+00 0.000000e+00
1
Step 469000
Ar -9.523734e-01 0.000000e+00 0.000000e+00
1
Step 470000
Ar -8.087960e-01 0.000000e+00 0.000000e+00
1
Step 471000
Ar -1.003188e+00 0.000000e+00 0.000000e+00
1
Step 472000
Ar -8.071804e-01 0.000000e+00 0.000000e+00
1
Step 473000
Ar -1.082555e+00 0.000000e+00 0.000000e+00
1
Step 474000
Ar -1.080523e+00 0.000000e+00 0.000000e+00
1
Step 475000
Ar -1.089415e+00 0.000000e+00 0.000000e+00
1
Step 476000
Ar -1.089088e+00 0.000000e+00 0.000000e+00
1
Step 477000
Ar -1.088026e+00 0.000000e+00 0.000000e+00
1
Step 478000
Ar -1.093993e+00 0.000000e+00 0.000000e+00
1
Step 479000
Ar -7.107252e-01 0.000000e+00 0.000000e+00
1
Step 480000
Ar -1.098680e+00 0.000000e+00 0.000000e+00
1
Step 481000
Ar -9.652334e-01 0.000000e+00 0.000000e+00
1
Step 482000
Ar -1.117881e+00 0.000000e+00 0.000000e+00
1
Step 483000
Ar -1.106419e+00 0.000000e+00 0.000000e+00
1
Step 484000
Ar -9.359014e-01 0.000000e+00 0.000000e+00
1
Step 485000
Ar -1.047853e+00 0.000000e+00 0.000000e+00
1
Step 486000
Ar -8.966479e-01 0.000000e+00 0.000000e+00
1
Step 487000
Ar -8.971470e-01 0.000000e+00 0.000000e+00
1
Step 488000
Ar -8.990690e-01 0.000000e+00 0.000000e+00
1
Step 489000
Ar -8.969678e-01 0.000000e+00 0.000000e+00
1
Step 490000
Ar -8.936482e-01 0.000000e+00 0.000000e+00
1
Step 491000
Ar -8.951758e-01 0.000000e+00 0.000000e+00
1
Step 492000
Ar -8.940633e-01 0.000000e+00 0.000000e+00
1
Step 493000
Ar -8.973063e-01 0.000000e+00 0.000000e+00
1
Step 494000
Ar -8.959944e-01 0.000000e+00 0.000000e+00
1
Step 495000
Ar -8.947577e-01 0.000000e+00 0.000000e+00
1
Step 496000
Ar -8.978332e-01 0.000000e+00 0.000000e+00
1
Step 497000
Ar -9.642393e-01 0.000000e+00 0.000000e+00
1
Step 498000
Ar -1.153857e+00 0.000000e+00 0.000000e+00
1
Step 499000
Ar -1.161376e+00 0.000000e+00 0.000000e+00
1
Step 500000
Ar -1.062236e+00 0.000000e+00 0.000000e+00
1
Step 501000
Ar -1.128874e+00 0.000000e+00 0.000000e+00
1
Step 502000
Ar -9.728826e-01 0.000000e+00 0.000000e+00
1
Step 503000
Ar -7.613154e-01 0.000000e+00 0.000000e+00
1
Step 504000
Ar -1.139307e+00 0.000000e+00 0.000000e+00
1
Step 505000
Ar -7.367161e-01 0.000000e+00 0.000000e+00
1
Step 506000
Ar -1.134212e+00 0.000000e+00 0.000000e+00
1
Step 507000
Ar -6.761448e-01 0.000000e+00 0.000000e+00
1
Step 508000
Ar -1.051126e+00 0.000000e+00 0.000000e+00
1
Step 509000
Ar -1.201881e+00 0.000000e+00 0.000000e+00
1
Step 510000
Ar -1.079649e+00 0.000000e+00 0.000000e+00
1
Step 511000
Ar -1.032091e+00 0.000000e+00 0.000000e+00
1
Step 512000
Ar -1.012327e+00 0.000000e+00 0.000000e+00
1
Step 513000
Ar -1.038561e+00 0.000000e+00 0.000000e+00
1
Step 514000
Ar -1.168738e+00 0.000000e+00 0.000000e+00
1
Step 515000
Ar -1.045022e+00 0.000000e+00 0.000000e+00
1
Step 516000
Ar -9.361130e-01 0.000000e+00 0.000000e+00
1
Step 517000
Ar -9.652235e-01 0.000000e+00 0.000000e+00
1
Step 518000
Ar -1.127775e+00 0.000000e+00 0.000000e+00
1
Step 519000
Ar -9.344440e-01 0.000000e+00 0.000000e+00
1
Step 520000
Ar -1.034399e+00 0.000000e+00 0.000000e+00
1
Step 521000
Ar -7.393829e-01 0.000000e+00 0.000000e+00
1
Step 522000
Ar -8.945656e-01 0.000000e+00 0.000000e+00
1
Step 523000
Ar -1.035611e+00 0.000000e+00 0.000000e+00
1
Step 524000
Ar -1.118771e+00 0.000000e+00 0.000000e+00
1
Step 525000
Ar -1.120175e+00 0.000000e+00 0.000000e+00
1
Step 526000
Ar -1.081725e+00 0.000000e+00 0.000000e+00
1
Step 527000
Ar -9.077901e-01 0.000000e+00 0.000000e+00
1
Step 528000
Ar -9.521664e-01 0.000000e+00 0.000000e+00
1
Step 529000
Ar -9.298872e-01 0.000000e+00 0.000000e+00
1
Step 530000
Ar -9.542785e-01 0.000000e+00 0.000000e+00
1
Step 531000
Ar -1.069773e+00 0.000000e+00 0.000000e+00
1
Step 532000
Ar -1.019421e+00 0.000000e+00 0.000000e+00
1
Step 533000
Ar -1.076496e+00 0.000000e+00 0.000000e+00
1
Step 534000
Ar -1.076439e+00 0.000000e+00 0.000000e+00
1
Step 535000
Ar -8.778480e-01 0.000000e+00 0.000000e+00
1
Step 536000
Ar -8.878019e-01 0.000000e+00 0.000000e+00
1
Step 537000
Ar -8.967054e-01 0.000000e+00 0.000000e+00
1
Step 538000
Ar -8.946762e-01 0.000000e+00 0.000000e+00
1
Step 539000
Ar -8.800611e-01 0.000000e+00 0.000000e+00
1
Step 540000
Ar -9.397257e-01 0.000000e+00 0.000000e+00
1
Step 541000
Ar -8.944489e-01 0.000000e+00 0.000000e+00
1
Step 542000
Ar -8.940788e-01 0.000000e+00 0.000000e+00
1
Step 543000
Ar -8.957054e-01 0.000000e+00 0.000000e+00
1
Step 544000
Ar -8.957374e-01 0.000000e+00 0.000000e+00
1
Step 545000
Ar -8.931492e-01 0.000000e+00 0.000000e+00
1
Step 546000
Ar -8.981772e-01 0.000000e+00 0.000000e+00
1
Step 547000
Ar -8.972376e-01 0.000000e+00 0.000000e+00
1
Step 548000
Ar -8.757970e-01 0.000000e+00 0.000000e+00
1
Step 549000
Ar -8.333265e-01 0.000000e+00 0.000000e+00
1
Step 550000
Ar -9.316439e-01 0.000000e+00 0.000000e+00
1
Step 551000
Ar -9.269399e-01 0.000000e+00 0.000000e+00
1
Step 552000
Ar -8.953967e-01 0.000000e+00 0.000000e+00
1
Step 553000
Ar -8.982545e-01 0.000000e+00 0.000000e+00
1
Step 554000
Ar -8.917484e-01 0.000000e+00 0.000000e+00
1
Step 555000
Ar -8.959449e-01 0.000000e+00 0.000000e+00
1
Step 556000
Ar -8.980015e-01 0.000000e+00 0.000000e+00
1
Step 557000
Ar -9.944217e-01 0.000000e+00 0.000000e+00
1
Step 558000
Ar -9.198115e-01 0.000000e+00 0.000000e+00
1
Step 559000
Ar -9.131977e-01 0.000000e+00 0.000000e+00
1
Step 560000
Ar -1.027115e+00 0.000000e+00 0.000000e+00
1
Step 561000
Ar -8.788010e-01 0.000000e+00 0.000000e+00
1
Step 562000
Ar -9.561808e-01 0.000000e+00 0.000000e+00
1
Step 563000
Ar -1.125221e+00 0.000000e+00 0.000000e+00
1
Step 564000
Ar -1.282593e+00 0.000000e+00 0.000000e+00
1
Step 565000
Ar -1.165018e+00 0.000000e+00 0.000000e+00
1
Step 566000
Ar -8.767979e-01 0.000000e+00 0.000000e+00
1
Step 567000
Ar -8.799134e-01 0.000000e+00 0.000000e+00
1
Step 568000
Ar -8.760439e-01 0.000000e+00 0.000000e+00
1
Step 569000
Ar -8.775540e-01 0.000000e+00 0.000000e+00
1
Step 570000
Ar -8.723576e-01 0.000000e+00 0.000000e+00
1
Step 571000
Ar -8.764302e-01 0.000000e+00 0.000000e+00
1
Step 572000
Ar -8.778874e-01 0.000000e+00 0.000000e+00
1
Step 573000
Ar -8.749782e-01 0.000000e+00 0.000000e+00
1
Step 574000
Ar -8.749157e-01 0.000000e+00 0.000000e+00
1
Step 575000
Ar -8.351673e-01 0.000000e+00 0.000000e+00
1
Step 576000
Ar -5.374881e-01 0.000000e+00 0.000000e+00
1
Step 577000
Ar -8.582150e-01 0.000000e+00 0.000000e+00
1
Step 578000
Ar -7.338945e-01 0.000000e+00 0.000000e+00
1
Step 579000
Ar -8.913307e-01 0.000000e+00 0.000000e+00
1
Step 580000
Ar -5.066303e-01 0.000000e+00 0.000000e+00
1
Step 581000
Ar -8.802923e-01 0.000000e+00 0.000000e+00
1
Step 582000
Ar -8.768893e-01 0.000000e+00 0.000000e+00
1
Step 583000
Ar -1.115574e+00 0.000000e+00 0.000000e+00
1
Step 584000
Ar -1.117451e+00 0.000000e+00 0.000000e+00
1
Step 585000
Ar -8.515387e-01 0.000000e+00 0.000000e+00
1
Step 586000
Ar -7.844806e-01 0.000000e+00 0.000000e+00
1
Step 587000
Ar -1.001025e+00 0.000000e+00 0.000000e+00
1
Step 588000
Ar -7.523576e-01 0.000000e+00 0.000000e+00
1
Step 589000
Ar -7.687670e-01 0.000000e+00 0.000000e+00
1
Step 590000
Ar -1.096190e+00 0.000000e+00 0.000000e+00
1
Step 591000
Ar -1.024435e+00 0.000000e+00 0.000000e+00
1
Step 592000
Ar -7.884109e-01 0.000000e+00 0.000000e+00
1
Step 593000
Ar -1.007863e+00 0.000000e+00 0.000000e+00
1
Step 594000
Ar 9.030236e-01 0.000000e+00 0.000000e+00
1
Step 595000
Ar 9.933769e-01 0.000000e+00 0.000000e+00
1
Step 596000
Ar 9.975502e-01 0.000000e+00 0.000000e+00
1
Step 597000
Ar 1.001581e+00 0.000000e+00 0.000000e+00
1
Step 598000
Ar 7.369690e-01 0.000000e+00 0.000000e+00
1
Step 599000
Ar 9.628503e-01 0.000000e+00 0.000000e+00
1
Step 600000
Ar 7.931983e-01 0.000000e+00 0.000000e+00
1
Step 601000
Ar 1.166683e+00 0.000000e+00 0.000000e+00
1
Step 602000
Ar 1.068883e+00 0.000000e+00 0.000000e+00
1
Step 603000
Ar 1.128760e+00 0.000000e+00 0.000000e+00
1
Step 604000
Ar 1.029643e+00 0.000000e+00 0.000000e+00
1
Step 605000
Ar 8.357787e-01 0.000000e+00 0.000000e+00
1
Step 606000
Ar 8.005554e-01 0.000000e+00 0.000000e+00
1
Step 607000
Ar 1.098200e+00 0.000000e+00 0.000000e+00
1
Step 608000
Ar 1.084670e+00 0.000000e+00 0.000000e+00
1
Step 609000
Ar 6.083280e-01 0.000000e+00 0.000000e+00
1
Step 610000
Ar 1.002377e+00 0.000000e+00 0.000000e+00
1
Step 611000
Ar 1.000650e+00 0.000000e+00 0.000000e+00
1
Step 612000
Ar 1.078754e+00 0.000000e+00 0.000000e+00
1
Step 613000
Ar 8.745349e-01 0.000000e+00 0.000000e+00
1
Step 614000
Ar 8.699523e-01 0.000000e+00 0.000000e+00
1
Step 615000
Ar 1.237533e+00 0.000000e+00 0.000000e+00
1
Step 616000
Ar 8.416904e-01 0.000000e+00 0.000000e+00
1
Step 617000
Ar 8.449279e-01 0.000000e+00 0.000000e+00
1
Step 618000
Ar 1.102235e+00 0.000000e+00 0.000000e+00
1
Step 619000
Ar 9.947104e-01 0.000000e+00 0.000000e+00
1
Step 620000
Ar 9.979669e-01 0.000000e+00 0.000000e+00
1
Step 621000
Ar 1.139528e+00 0.000000e+00 0.000000e+00
1
Step 622000
Ar 9.823199e-01 0.000000e+00 0.000000e+00
1
Step 623000
Ar 9.764321e-01 0.000000e+00 0.000000e+00
1
Step 624000
Ar 9.409226e-01 0.000000e+00 0.000000e+00
1
Step 625000
Ar 7.417920e-01 0.000000e+00 0.000000e+00
1
Step 626000
Ar 8.839615e-01 0.000000e+00 0.000000e+00
1
Step 627000
Ar 1.219653e+00 0.000000e+00 0.000000e+00
1
Step 628000
Ar 4.541313e-01 0.000000e+00 0.000000e+00
1
Step 629000
Ar 8.614948e-01 0.000000e+00 0.000000e+00
1
Step 630000
Ar 1.084199e+00 0.000000e+00 0.000000e+00
1
Step 631000
Ar 1.035781e+00 0.000000e+00 0.000000e+00
1
Step 632000
Ar 9.186950e-01 0.000000e+00 0.000000e+00
1
Step 633000
Ar 9.579799e-01 0.000000e+00 0.000000e+00
1
Step 634000
Ar 8.873238e-01 0.000000e+00 0.000000e+00
1
Step 635000
Ar 9.655754e-01 0.000000e+00 0.000000e+00
1
Step 636000
Ar 9.691490e-01 0.000000e+00 0.000000e+00
1
Step 637000
Ar 9.691367e-01 0.000000e+00 0.000000e+00
1
Step 638000
Ar 9.971666e-01 0.000000e+00 0.000000e+00
1
Step 639000
Ar 8.392878e-01 0.000000e+00 0.000000e+00
1
Step 640000
Ar 8.399923e-01 0.000000e+00 0.000000e+00
1
Step 641000
Ar 8.341742e-01 0.000000e+00 0.000000e+00
1
Step 642000
Ar 8.393149e-01 0.000000e+00 0.000000e+00
1
Step 643000
Ar 8.372077e-01 0.000000e+00 0.000000e+00
1
Step 644000
Ar 9.423666e-01 0.000000e+00 0.000000e+00
1
Step 645000
Ar 1.180687e+00 0.000000e+00 0.000000e+00
1
Step 646000
Ar 1.094938e+00 0.000000e+00 0.000000e+00
1
Step 647000
Ar 7.007590e-01 0.000000e+00 0.000000e+00
1
Step 648000
Ar 8.944284e-01 0.000000e+00 0.000000e+00
1
Step 649000
Ar 9.172299e-01 0.000000e+00 0.000000e+00
1
Step 650000
Ar 8.837079e-01 0.000000e+00 0.000000e+00
1
Step 651000