1
Step 120000
Ar 1.009040e+00 0.000000e+00 0.000000e+00
1
Step 121000
Ar 8.148428e-01 0.000000e+00 0.000000e+00
1
Step 122000
Ar 1.036348e+00 0.000000e+00 0.000000e+00
1
Step 123000
Ar 9.012432e-01 0.000000e+00 0.000000e+00
1
Step 124000
Ar 9.775658e-01 0.000000e+00 0.000000e+00
1
Step 125000
Ar 8.537809e-01 0.000000e+00 0.000000e+00
1
Step 126000
Ar 8.222770e-01 0.000000e+00 0.000000e+00
1
Step 127000
Ar 8.380030e-01 0.000000e+00 0.000000e+00
1
Step 128000
Ar 7.428346e-01 0.000000e+00 0.000000e+00
1
Step 129000
Ar 8.455135e-01 0.000000e+00 0.000000e+00
1
Step 130000
Ar 7.749024e-01 0.000000e+00 0.000000e+00
1
Step 131000
Ar 5.943509e-01 0.000000e+00 0.000000e+00
1
Step 132000
Ar 7.585873e-01 0.000000e+00 0.000000e+00
1
Step 133000
Ar 6.952401e-01 0.000000e+00 0.000000e+00
1
Step 134000
Ar 7.190511e-01 0.000000e+00 0.000000e+00
1
Step 135000
Ar 6.829212e-01 0.000000e+00 0.000000e+00
1
Step 136000
Ar 7.591823e-01 0.000000e+00 0.000000e+00
1
Step 137000
Ar 7.083512e-01 0.000000e+00 0.000000e+00
1
Step 138000
Ar 7.485807e-01 0.000000e+00 0.000000e+00
1
Step 139000
Ar 7.654153e-01 0.000000e+00 0.000000e+00
1
Step 140000
Ar 7.591129e-01 0.000000e+00 0.000000e+00
1
Step 141000
Ar 7.056469e-01 0.000000e+00 0.000000e+00
1
Step 142000
Ar 7.249176e-01 0.000000e+00 0.000000e+00
1
Step 143000
Ar 6.992876e-01 0.000000e+00 0.000000e+00
1
Step 144000
Ar 7.303040e-01 0.000000e+00 0.000000e+00
1
Step 145000
Ar 7.415052e-01 0.000000e+00 0.000000e+00
1
Step 146000
Ar 8.367821e-01 0.000000e+00 0.000000e+00
1
Step 147000
Ar 7.873473e-01 0.000000e+00 0.000000e+00
1
Step 148000
Ar 8.302553e-01 0.000000e+00 0.000000e+00
1
Step 149000
Ar 8.336618e-01 0.000000e+00 0.000000e+00
1
Step 150000
Ar 8.122285e-01 0.000000e+00 0.000000e+00
1
Step 151000
Ar 8.299347e-01 0.000000e+00 0.000000e+00
1
Step 152000
Ar 8.269324e-01 0.000000e+00 0.000000e+00
1
Step 153000
Ar 8.262428e-01 0.000000e+00 0.000000e+00
1
Step 154000
Ar 8.394401e-01 0.000000e+00 0.000000e+00
1
Step 155000
Ar 8.384397e-01 0.000000e+00 0.000000e+00
1
Step 156000
Ar 8.278818e-01 0.000000e+00 0.000000e+00
1
Step 157000
Ar 8.240702e-01 0.000000e+00 0.000000e+00
1
Step 158000
Ar 8.236567e-01 0.000000e+00 0.000000e+00
1
Step 159000
Ar 8.247907e-01 0.000000e+00 0.000000e+00
1
Step 160000
Ar 8.205222e-01 0.000000e+00 0.000000e+00
1
Step 161000
Ar 8.733638e-01 0.000000e+00 0.000000e+00
1
Step 162000
Ar 8.944320e-01 0.000000e+00 0.000000e+00
1
Step 163000
Ar 9.915985e-01 0.000000e+00 0.000000e+00
1
Step 164000
Ar 9.376339e-01 0.000000e+00 0.000000e+00
1
Step 165000
Ar 1.029621e+00 0.000000e+00 0.000000e+00
1
Step 166000
Ar 9.976631e-01 0.000000e+00 0.000000e+00
1
Step 167000
Ar 9.229784e-01 0.000000e+00 0.000000e+00
1
Step 168000
Ar 8.849278e-01 0.000000e+00 0.000000e+00
1
Step 169000
Ar 9.260495e-01 0.000000e+00 0.000000e+00
1
Step 170000
Ar 9.702632e-01 0.000000e+00 0.000000e+00
1
Step 171000
Ar 1.193212e+00 0.000000e+00 0.000000e+00
1
Step 172000
Ar 1.093287e+00 0.000000e+00 0.000000e+00
1
Step 173000
Ar 1.072721e+00 0.000000e+00 0.000000e+00
1
Step 174000
Ar 1.064769e+00 0.000000e+00 0.000000e+00
1
Step 175000
Ar 1.076240e+00 0.000000e+00 0.000000e+00
1
Step 176000
Ar 1.132407e+00 0.000000e+00 0.000000e+00
1
Step 177000
Ar 1.104972e+00 0.000000e+00 0.000000e+00
1
Step 178000
Ar 1.148096e+00 0.000000e+00 0.000000e+00
1
Step 179000
Ar 1.174868e+00 0.000000e+00 0.000000e+00
1
Step 180000
Ar 1.096414e+00 0.000000e+00 0.000000e+00
1
Step 181000
Ar 1.047803e+00 0.000000e+00 0.000000e+00
1
Step 182000
Ar 1.062269e+00 0.000000e+00 0.000000e+00
1
Step 183000
Ar 1.054234e+00 0.000000e+00 0.000000e+00
1
Step 184000
Ar 1.053341e+00 0.000000e+00 0.000000e+00
1
Step 185000
Ar 1.054369e+00 0.000000e+00 0.000000e+00
1
Step 186000
Ar 9.619778e-01 0.000000e+00 0.000000e+00
1
Step 187000
Ar 9.214291e-01 0.000000e+00 0.000000e+00
1
Step 188000
Ar 9.186017e-01 0.000000e+00 0.000000e+00
1
Step 189000
Ar 8.848059e-01 0.000000e+00 0.000000e+00
1
Step 190000
Ar 9.146357e-01 0.000000e+00 0.000000e+00
1
Step 191000
Ar 8.817613e-01 0.000000e+00 0.000000e+00
1
Step 192000
Ar 8.902195e-01 0.000000e+00 0.000000e+00
1
Step 193000
Ar 8.715257e-01 0.000000e+00 0.000000e+00
1
Step 194000
Ar 8.833570e-01 0.000000e+00 0.000000e+00
1
Step 195000
Ar 8.658168e-01 0.000000e+00 0.000000e+00
1
Step 196000
Ar 9.498860e-01 0.000000e+00 0.000000e+00
1
Step 197000
Ar 9.395951e-01 0.000000e+00 0.000000e+00
1
Step 198000
Ar 9.406074e-01 0.000000e+00 0.000000e+00
1
Step 199000
Ar 9.534369e-01 0.000000e+00 0.000000e+00
1
Step 200000
Ar 9.271014e-01 0.000000e+00 0.000000e+00
1
Step 201000
Ar 9.443924e-01 0.000000e+00 0.000000e+00
1
Step 202000
Ar 9.585258e-01 0.000000e+00 0.000000e+00
1
Step 203000
Ar 9.565418e-01 0.000000e+00 0.000000e+00
1
Step 204000
Ar 9.481668e-01 0.000000e+00 0.000000e+00
1
Step 205000
Ar 9.563786e-01 0.000000e+00 0.000000e+00
1
Step 206000
Ar 9.939987e-01 0.000000e+00 0.000000e+00
1
Step 207000
Ar 1.005715e+00 0.000000e+00 0.000000e+00
1
Step 208000
Ar 1.011849e+00 0.000000e+00 0.000000e+00
1
Step 209000
Ar 9.922687e-01 0.000000e+00 0.000000e+00
1
Step 210000
Ar 9.873963e-01 0.000000e+00 0.000000e+00
1
Step 211000
Ar 1.018463e+00 0.000000e+00 0.000000e+00
1
Step 212000
Ar 9.983500e-01 0.000000e+00 0.000000e+00
1
Step 213000
Ar 1.006049e+00 0.000000e+00 0.000000e+00
1
Step 214000
Ar 1.004358e+00 0.000000e+00 0.000000e+00
1
Step 215000
Ar 1.011122e+00 0.000000e+00 0.000000e+00
1
Step 216000
Ar 9.970951e-01 0.000000e+00 0.000000e+00
1
Step 217000
Ar 1.000010e+00 0.000000e+00 0.000000e+00
1
Step 218000
Ar 1.000605e+00 0.000000e+00 0.000000e+00
1
Step 219000
Ar 1.002136e+00 0.000000e+00 0.000000e+00
1
Step 220000
Ar 9.991779e-01 0.000000e+00 0.000000e+00
1
Step 221000
Ar 8.954223e-01 0.000000e+00 0.000000e+00
1
Step 222000
Ar 8.818648e-01 0.000000e+00 0.000000e+00
1
Step 223000
Ar 8.787559e-01 0.000000e+00 0.000000e+00
1
Step 224000
Ar 8.924764e-01 0.000000e+00 0.000000e+00
1
Step 225000
Ar 8.885166e-01 0.000000e+00 0.000000e+00
1
Step 226000
Ar 8.959034e-01 0.000000e+00 0.000000e+00
1
Step 227000
Ar 9.010509e-01 0.000000e+00 0.000000e+00
1
Step 228000
Ar 9.021236e-01 0.000000e+00 0.000000e+00
1
Step 229000
Ar 9.036671e-01 0.000000e+00 0.000000e+00
1
Step 230000
Ar 9.018796e-01 0.000000e+00 0.000000e+00
1
Step 231000
Ar 8.771389e-01 0.000000e+00 0.000000e+00
1
Step 232000
Ar 8.760783e-01 0.000000e+00 0.000000e+00
1
Step 233000
Ar 8.794791e-01 0.000000e+00 0.000000e+00
1
Step 234000
Ar 8.745675e-01 0.000000e+00 0.000000e+00
1
Step 235000
Ar 8.803513e-01 0.000000e+00 0.000000e+00
1
Step 236000
Ar 7.075040e-01 0.000000e+00 0.000000e+00
1
Step 237000
Ar 7.235678e-01 0.000000e+00 0.000000e+00
1
Step 238000
Ar 7.100287e-01 0.000000e+00 0.000000e+00
1
Step 239000
Ar 6.990453e-01 0.000000e+00 0.000000e+00
1
Step 240000
Ar 7.118085e-01 0.000000e+00 0.000000e+00
1
Step 241000
Ar 6.987241e-01 0.000000e+00 0.000000e+00
1
Step 242000
Ar 7.011083e-01 0.000000e+00 0.000000e+00
1
Step 243000
Ar 7.008956e-01 0.000000e+00 0.000000e+00
1
Step 244000
Ar 7.009405e-01 0.000000e+00 0.000000e+00
1
Step 245000
Ar 7.942362e-01 0.000000e+00 0.000000e+00
1
Step 246000
Ar 7.829727e-01 0.000000e+00 0.000000e+00
1
Step 247000
Ar 7.847559e-01 0.000000e+00 0.000000e+00
1
Step 248000
Ar 7.841010e-01 0.000000e+00 0.000000e+00
1
Step 249000
Ar 7.865934e-01 0.000000e+00 0.000000e+00
1
Step 250000
Ar 7.848416e-01 0.000000e+00 0.000000e+00
1
Step 251000
Ar 6.656419e-01 0.000000e+00 0.000000e+00
1
Step 252000
Ar 6.505803e-01 0.000000e+00 0.000000e+00
1
Step 253000
Ar 6.468677e-01 0.000000e+00 0.000000e+00
1
Step 254000
Ar 6.579922e-01 0.000000e+00 0.000000e+00
1
Step 255000
Ar 6.535727e-01 0.000000e+00 0.000000e+00
1
Step 256000
Ar 7.684592e-01 0.000000e+00 0.000000e+00
1
Step 257000
Ar -8.898752e-01 0.000000e+00 0.000000e+00
1
Step 258000
Ar -8.558091e-01 0.000000e+00 0.000000e+00
1
Step 259000
Ar -1.012299e+00 0.000000e+00 0.000000e+00
1
Step 260000
Ar -9.299501e-01 0.000000e+00 0.000000e+00
1
Step 261000
Ar -1.030651e+00 0.000000e+00 0.000000e+00
1
Step 262000
Ar -9.784477e-01 0.000000e+00 0.000000e+00
1
Step 263000
Ar -1.005992e+00 0.000000e+00 0.000000e+00
1
Step 264000
Ar -1.086401e+00 0.000000e+00 0.000000e+00
1
Step 265000
Ar -1.056760e+00 0.000000e+00 0.000000e+00
1
Step 266000
Ar -9.561773e-01 0.000000e+00 0.000000e+00
1
Step 267000
Ar -9.685197e-01 0.000000e+00 0.000000e+00
1
Step 268000
Ar -1.031815e+00 0.000000e+00 0.000000e+00
1
Step 269000
Ar -9.649880e-01 0.000000e+00 0.000000e+00
1
Step 270000
Ar -9.871858e-01 0.000000e+00 0.000000e+00
1
Step 271000
Ar -9.741209e-01 0.000000e+00 0.000000e+00
1
Step 272000
Ar -9.570489e-01 0.000000e+00 0.000000e+00
1
Step 273000
Ar -9.418265e-01 0.000000e+00 0.000000e+00
1
Step 274000
Ar -9.622802e-01 0.000000e+00 0.000000e+00
1
Step 275000
Ar -9.644119e-01 0.000000e+00 0.000000e+00
1
Step 276000
Ar -9.760205e-01 0.000000e+00 0.000000e+00
1
Step 277000
Ar -9.789882e-01 0.000000e+00 0.000000e+00
1
Step 278000
Ar -9.766875e-01 0.000000e+00 0.000000e+00
1
Step 279000
Ar -9.712972e-01 0.000000e+00 0.000000e+00
1
Step 280000
Ar -9.791704e-01 0.000000e+00 0.000000e+00
1
Step 281000
Ar -9.061691e-01 0.000000e+00 0.000000e+00
1
Step 282000
Ar -8.491840e-01 0.000000e+00 0.000000e+00
1
Step 283000
Ar -8.870766e-01 0.000000e+00 0.000000e+00
1
Step 284000
Ar -8.805801e-01 0.000000e+00 0.000000e+00
1
Step 285000
Ar -6.617552e-01 0.000000e+00 0.000000e+00
1
Step 286000
Ar -6.361841e-01 0.000000e+00 0.000000e+00
1
Step 287000
Ar -5.692552e-01 0.000000e+00 0.000000e+00
1
Step 288000
Ar -5.967608e-01 0.000000e+00 0.000000e+00
1
Step 289000
Ar -6.489090e-01 0.000000e+00 0.000000e+00
1
Step 290000
Ar -4.469578e-01 0.000000e+00 0.000000e+00
1
Step 291000
Ar -5.948750e-01 0.000000e+00 0.000000e+00
1
Step 292000
Ar -5.366111e-01 0.000000e+00 0.000000e+00
1
Step 293000
Ar -5.444392e-01 0.000000e+00 0.000000e+00
1
Step 294000
Ar -6.477663e-01 0.000000e+00 0.000000e+00
1
Step 295000
Ar -5.682211e-01 0.000000e+00 0.000000e+00
1
Step 296000
Ar -5.538371e-01 0.000000e+00 0.000000e+00
1
Step 297000
Ar -5.462240e-01 0.000000e+00 0.000000e+00
1
Step 298000
Ar -5.483886e-01 0.000000e+00 0.000000e+00
1
Step 299000
Ar -4.750684e-01 0.000000e+00 0.000000e+00
1
Step 300000
Ar -5.130486e-01 0.000000e+00 0.000000e+00
1
Step 301000
Ar -5.880723e-01 0.000000e+00 0.000000e+00
1
Step 302000
Ar -6.093696e-01 0.000000e+00 0.000000e+00
1
Step 303000
Ar -5.877099e-01 0.000000e+00 0.000000e+00
1
Step 304000
Ar -6.506648e-01 0.000000e+00 0.000000e+00
1
Step 305000
Ar -6.060486e-01 0.000000e+00 0.000000e+00
1
Step 306000
Ar -8.460320e-01 0.000000e+00 0.000000e+00
1
Step 307000
Ar -8.521606e-01 0.000000e+00 0.000000e+00
1
Step 308000
Ar -7.647929e-01 0.000000e+00 0.000000e+00
1
Step 309000
Ar -8.210268e-01 0.000000e+00 0.000000e+00
1
Step 310000
Ar -8.265129e-01 0.000000e+00 0.000000e+00
1
Step 311000
Ar -9.503156e-01 0.000000e+00 0.000000e+00
1
Step 312000
Ar -9.568560e-01 0.000000e+00 0.000000e+00
1
Step 313000
Ar -9.428129e-01 0.000000e+00 0.000000e+00
1
Step 314000
Ar -9.499433e-01 0.000000e+00 0.000000e+00
1
Step 315000
Ar -9.435427e-01 0.000000e+00 0.000000e+00
1
Step 316000
Ar -7.905243e-01 0.000000e+00 0.000000e+00
1
Step 317000
Ar -7.034612e-01 0.000000e+00 0.000000e+00
1
Step 318000
Ar -7.545128e-01 0.000000e+00 0.000000e+00
1
Step 319000
Ar -7.903840e-01 0.000000e+00 0.000000e+00
1
Step 320000
Ar -6.874172e-01 0.000000e+00 0.000000e+00
1
Step 321000
Ar -8.873387e-01 0.000000e+00 0.000000e+00
1
Step 322000
Ar -8.695544e-01 0.000000e+00 0.000000e+00
1
Step 323000
Ar -8.682837e-01 0.000000e+00 0.000000e+00
1
Step 324000
Ar -8.829358e-01 0.000000e+00 0.000000e+00
1
Step 325000
Ar -8.799513e-01 0.000000e+00 0.000000e+00
1
Step 326000
Ar -8.607158e-01 0.000000e+00 0.000000e+00
1
Step 327000
Ar -8.421532e-01 0.000000e+00 0.000000e+00
1
Step 328000
Ar -8.584734e-01 0.000000e+00 0.000000e+00
1
Step 329000
Ar -8.608530e-01 0.000000e+00 0.000000e+00
1
Step 330000
Ar -8.576515e-01 0.000000e+00 0.000000e+00
1
Step 331000
Ar -9.114287e-01 0.000000e+00 0.000000e+00
1
Step 332000
Ar -9.101468e-01 0.000000e+00 0.000000e+00
1
Step 333000
Ar -9.150669e-01 0.000000e+00 0.000000e+00
1
Step 334000
Ar -8.977195e-01 0.000000e+00 0.000000e+00
1
Step 335000
Ar -8.986536e-01 0.000000e+00 0.000000e+00
1
Step 336000
Ar -1.159438e+00 0.000000e+00 0.000000e+00
1
Step 337000
Ar -1.113564e+00 0.000000e+00 0.000000e+00
1
Step 338000
Ar -1.079496e+00 0.000000e+00 0.000000e+00
1
Step 339000
Ar -1.085326e+00 0.000000e+00 0.000000e+00
1
Step 340000
Ar -1.126957e+00 0.000000e+00 0.000000e+00
1
Step 341000
Ar -1.108002e+00 0.000000e+00 0.000000e+00
1
Step 342000
Ar -1.090344e+00 0.000000e+00 0.000000e+00
1
Step 343000
Ar -1.084234e+00 0.000000e+00 0.000000e+00
1
Step 344000
Ar -1.098107e+00 0.000000e+00 0.000000e+00
1
Step 345000
Ar -1.072141e+00 0.000000e+00 0.000000e+00
1
Step 346000
Ar -1.109659e+00 0.000000e+00 0.000000e+00
1
Step 347000
Ar -1.105505e+00 0.000000e+00 0.000000e+00
1
Step 348000
Ar -1.090165e+00 0.000000e+00 0.000000e+00
1
Step 349000
Ar -1.102847e+00 0.000000e+00 0.000000e+00
1
Step 350000
Ar -1.099280e+00 0.000000e+00 0.000000e+00
1
Step 351000
Ar -1.110506e+00 0.000000e+00 0.000000e+00
1
Step 352000
Ar -1.111209e+00 0.000000e+00 0.000000e+00
1
Step 353000
Ar -1.116813e+00 0.000000e+00 0.000000e+00
1
Step 354000
Ar -1.110241e+00 0.000000e+00 0.000000e+00
1
Step 355000
Ar -1.113471e+00 0.000000e+00 0.000000e+00
1
Step 356000
Ar -1.027664e+00 0.000000e+00 0.000000e+00
1
Step 357000
Ar -1.015615e+00 0.000000e+00 0.000000e+00
1
Step 358000
Ar -1.010415e+00 0.000000e+00 0.000000e+00
1
Step 359000
Ar -1.001411e+00 0.000000e+00 0.000000e+00
1
Step 360000
Ar -1.028302e+00 0.000000e+00 0.000000e+00
1
Step 361000
Ar -1.227856e+00 0.000000e+00 0.000000e+00
1
Step 362000
Ar -1.177506e+00 0.000000e+00 0.000000e+00
1
Step 363000
Ar -1.226230e+00 0.000000e+00 0.000000e+00
1
Step 364000
Ar -1.145791e+00 0.000000e+00 0.000000e+00
1
Step 365000
Ar -1.154472e+00 0.000000e+00 0.000000e+00
1
Step 366000
Ar -1.183933e+00 0.000000e+00 0.000000e+00
1
Step 367000
Ar -1.168613e+00 0.000000e+00 0.000000e+00
1
Step 368000
Ar -1.228152e+00 0.000000e+00 0.000000e+00
1
Step 369000
Ar -1.238631e+00 0.000000e+00 0.000000e+00
1
Step 370000
Ar -1.182652e+00 0.000000e+00 0.000000e+00
1
Step 371000
Ar -8.409848e-01 0.000000e+00 0.000000e+00
1
Step 372000
Ar -8.445243e-01 0.000000e+00 0.000000e+00
1
Step 373000
Ar -8.414549e-01 0.000000e+00 0.000000e+00
1
Step 374000
Ar -8.421397e-01 0.000000e+00 0.000000e+00
1
Step 375000
Ar -8.400527e-01 0.000000e+00 0.000000e+00
1
Step 376000
Ar -8.884842e-01 0.000000e+00 0.000000e+00
1
Step 377000
Ar -9.711112e-01 0.000000e+00 0.000000e+00
1
Step 378000
Ar -9.680934e-01 0.000000e+00 0.000000e+00
1
Step 379000
Ar -9.564412e-01 0.000000e+00 0.000000e+00
1
Step 380000
Ar -9.562787e-01 0.000000e+00 0.000000e+00
1
Step 381000
Ar -9.182571e-01 0.000000e+00 0.000000e+00
1
Step 382000
Ar -9.182900e-01 0.000000e+00 0.000000e+00
1
Step 383000
Ar -9.149207e-01 0.000000e+00 0.000000e+00
1
Step 384000
Ar -9.148940e-01 0.000000e+00 0.000000e+00
1
Step 385000
Ar -9.146035e-01 0.000000e+00 0.000000e+00
1
Step 386000
Ar -8.697960e-01 0.000000e+00 0.000000e+00
1
Step 387000
Ar -8.663149e-01 0.000000e+00 0.000000e+00
1
Step 388000
Ar -8.707434e-01 0.000000e+00 0.000000e+00
1
Step 389000
Ar -8.669787e-01 0.000000e+00 0.000000e+00
1
Step 390000
Ar -8.710143e-01 0.000000e+00 0.000000e+00
1
Step 391000
Ar -7.456712e-01 0.000000e+00 0.000000e+00
1
Step 392000
Ar -7.718005e-01 0.000000e+00 0.000000e+00
1
Step 393000
Ar -7.568510e-01 0.000000e+00 0.000000e+00
1
Step 394000
Ar -7.266589e-01 0.000000e+00 0.000000e+00
1
Step 395000
Ar -7.818373e-01 0.000000e+00 0.000000e+00
1
Step 396000
Ar -7.971022e-01 0.000000e+00 0.000000e+00
1
Step 397000
Ar -7.999339e-01 0.000000e+00 0.000000e+00
1
Step 398000
Ar -8.052627e-01 0.000000e+00 0.000000e+00
1
Step 399000
Ar -8.130329e-01 0.000000e+00 0.000000e+00
1
Step 400000
Ar -8.036830e-01 0.000000e+00 0.000000e+00
1
Step 401000
Ar -7.414459e-01 0.000000e+00 0.000000e+00
1
Step 402000
Ar -7.641824e-01 0.000000e+00 0.000000e+00
1
Step 403000
Ar -7.079702e-01 0.000000e+00 0.000000e+00
1
Step 404000
Ar -7.684796e-01 0.000000e+00 0.000000e+00
1
Step 405000
Ar -7.515401e-01 0.000000e+00 0.000000e+00
1
Step 406000
Ar -7.244920e-01 0.000000e+00 0.000000e+00
1
Step 407000
Ar -7.318306e-01 0.000000e+00 0.000000e+00
1
Step 408000
Ar -7.148966e-01 0.000000e+00 0.000000e+00
1
Step 409000
Ar -7.296428e-01 0.000000e+00 0.000000e+00
1
Step 410000
Ar -7.108555e-01 0.000000e+00 0.000000e+00
1
Step 411000
Ar -6.986797e-01 0.000000e+00 0.000000e+00
1
Step 412000
Ar -6.993393e-01 0.000000e+00 0.000000e+00
1
Step 413000
Ar -6.975382e-01 0.000000e+00 0.000000e+00
1
Step 414000
Ar -7.029804e-01 0.000000e+00 0.000000e+00
1
Step 415000
Ar -7.010311e-01 0.000000e+00 0.000000e+00
1
Step 416000
Ar -4.934156e-01 0.000000e+00 0.000000e+00
1
Step 417000
Ar -4.971787e-01 0.000000e+00 0.000000e+00
1
Step 418000
Ar -4.811572e-01 0.000000e+00 0.000000e+00
1
Step 419000
Ar -4.901810e-01 0.000000e+00 0.000000e+00
1
Step 420000
Ar -4.721692e-01 0.000000e+00 0.000000e+00
1
Step 421000
Ar -3.323214e-01 0.000000e+00 0.000000e+00
1
Step 422000
Ar -3.852159e-01 0.000000e+00 0.000000e+00
1
Step 423000
Ar -3.487402e-01 0.000000e+00 0.000000e+00
1
Step 424000
Ar -3.689410e-01 0.000000e+00 0.000000e+00
1
Step 425000
Ar -3.875700e-01 0.000000e+00 0.000000e+00
1
Step 426000
Ar -4.880733e-01 0.000000e+00 0.000000e+00
1
Step 427000
Ar -4.920862e-01 0.000000e+00 0.000000e+00
1
Step 428000
Ar -4.986279e-01 0.000000e+00 0.000000e+00
1
Step 429000
Ar -4.891972e-01 0.000000e+00 0.000000e+00
1
Step 430000
Ar -4.878541e-01 0.000000e+00 0.000000e+00
1
Step 431000
Ar -5.543968e-01 0.000000e+00 0.000000e+00
1
Step 432000
Ar -5.491758e-01 0.000000e+00 0.000000e+00
1
Step 433000
Ar -5.544976e-01 0.000000e+00 0.000000e+00
1
Step 434000
Ar -5.523004e-01 0.000000e+00 0.000000e+00
1
Step 435000
Ar -5.355174e-01 0.000000e+00 0.000000e+00
1
Step 436000
Ar -5.022981e-01 0.000000e+00 0.000000e+00
1
Step 437000
Ar -5.033898e-01 0.000000e+00 0.000000e+00
1
Step 438000
Ar -4.998782e-01 0.000000e+00 0.000000e+00
1
Step 439000
Ar -5.016322e-01 0.000000e+00 0.000000e+00
1
Step 440000
Ar -5.025173e-01 0.000000e+00 0.000000e+00
1
Step 441000
Ar -7.242145e-01 0.000000e+00 0.000000e+00
1
Step 442000
Ar -7.256486e-01 0.000000e+00 0.000000e+00
1
Step 443000
Ar -7.336993e-01 0.000000e+00 0.000000e+00
1
Step 444000
Ar -7.294559e-01 0.000000e+00 0.000000e+00
1
Step 445000
Ar -7.289019e-01 0.000000e+00 0.000000e+00
1
Step 446000
Ar -7.392485e-01 0.000000e+00 0.000000e+00
1
Step 447000
Ar -7.388005e-01 0.000000e+00 0.000000e+00
1
Step 448000
Ar -7.372412e-01 0.000000e+00 0.000000e+00
1
Step 449000
Ar -7.435374e-01 0.000000e+00 0.000000e+00
1
Step 450000
Ar -7.373495e-01 0.000000e+00 0.000000e+00
1
Step 451000
Ar -7.627624e-01 0.000000e+00 0.000000e+00
1
Step 452000
Ar -7.721362e-01 0.000000e+00 0.000000e+00
1
Step 453000
Ar -7.646053e-01 0.000000e+00 0.000000e+00
1
Step 454000
Ar -7.723917e-01 0.000000e+00 0.000000e+00
1
Step 455000
Ar -7.628962e-01 0.000000e+00 0.000000e+00
1
Step 456000
Ar -8.140653e-01 0.000000e+00 0.000000e+00
1
Step 457000
Ar -8.083177e-01 0.000000e+00 0.000000e+00
1
Step 458000
Ar -8.155076e-01 0.000000e+00 0.000000e+00
1
Step 459000
Ar -8.176946e-01 0.000000e+00 0.000000e+00
1
Step 460000
Ar -8.119987e-01 0.000000e+00 0.000000e+00
1
Step 461000
Ar -1.195708e+00 0.000000e+00 0.000000e+00
1
Step 462000
Ar -1.237400e+00 0.000000e+00 0.000000e+00
1
Step 463000
Ar -1.218522e+00 0.000000e+00 0.000000e+00
1
Step 464000
Ar -1.253513e+00 0.000000e+00 0.000000e+00
1
Step 465000
Ar -1.210768e+00 0.000000e+00 0.000000e+00
1
Step 466000
Ar -1.139182e+00 0.000000e+00 0.000000e+00
1
Step 467000
Ar -1.140256e+00 0.000000e+00 0.000000e+00
1
Step 468000
Ar -1.143721e+00 0.000000e+00 0.000000e+00
1
Step 469000
Ar -1.143334e+00 0.000000e+00 0.000000e+00
1
Step 470000
Ar -1.139762e+00 0.000000e+00 0.000000e+00
1
Step 471000
Ar -1.198589e+00 0.000000e+00 0.000000e+00
1
Step 472000
Ar -1.196526e+00 0.000000e+00 0.000000e+00
1
Step 473000
Ar -1.197398e+00 0.000000e+00 0.000000e+00
1
Step 474000
Ar -1.193628e+00 0.000000e+00 0.000000e+00
1
Step 475000
Ar -1.190773e+00 0.000000e+00 0.000000e+00
1
Step 476000
Ar -1.236314e+00 0.000000e+00 0.000000e+00
1
Step 477000
Ar -1.256078e+00 0.000000e+00 0.000000e+00
1
Step 478000
Ar -1.230379e+00 0.000000e+00 0.000000e+00
1
Step 479000
Ar -1.296296e+00 0.000000e+00 0.000000e+00
1
Step 480000
Ar -1.234100e+00 0.000000e+00 0.000000e+00
1
Step 481000
Ar -1.222875e+00 0.000000e+00 0.000000e+00
1
Step 482000
Ar -1.224088e+00 0.000000e+00 0.000000e+00
1
Step 483000
Ar -1.224652e+00 0.000000e+00 0.000000e+00
1
Step 484000
Ar -1.223518e+00 0.000000e+00 0.000000e+00
1
Step 485000
Ar -1.221421e+00 0.000000e+00 0.000000e+00
1
Step 486000
Ar -1.253161e+00 0.000000e+00 0.000000e+00
1
Step 487000
Ar -1.289780e+00 0.000000e+00 0.000000e+00
1
Step 488000
Ar -1.287781e+00 0.000000e+00 0.000000e+00
1
Step 489000
Ar -1.261014e+00 0.000000e+00 0.000000e+00
1
Step 490000
Ar -1.293511e+00 0.000000e+00 0.000000e+00
1
Step 491000
Ar -1.308015e+00 0.000000e+00 0.000000e+00
1
Step 492000
Ar -1.333292e+00 0.000000e+00 0.000000e+00
1
Step 493000
Ar -1.305249e+00 0.000000e+00 0.000000e+00
1
Step 494000
Ar -1.327397e+00 0.000000e+00 0.000000e+00
1
Step 495000
Ar -1.336061e+00 0.000000e+00 0.000000e+00
1
Step 496000
Ar -1.347716e+00 0.000000e+00 0.000000e+00
1
Step 497000
Ar -1.357267e+00 0.000000e+00 0.000000e+00
1
Step 498000
Ar -1.395762e+00 0.000000e+00 0.000000e+00
1
Step 499000
Ar -1.363793e+00 0.000000e+00 0.000000e+00
1
Step 500000
Ar -1.368187e+00 0.000000e+00 0.000000e+00
1
Step 501000
Ar -1.395499e+00 0.000000e+00 0.000000e+00
1
Step 502000
Ar -1.397659e+00 0.000000e+00 0.000000e+00
1
Step 503000
Ar -1.401753e+00 0.000000e+00 0.000000e+00
1
Step 504000
Ar -1.398544e+00 0.000000e+00 0.000000e+00
1
Step 505000
Ar -1.404987e+00 0.000000e+00 0.000000e+00
1
Step 506000
Ar -1.310181e+00 0.000000e+00 0.000000e+00
1
Step 507000
Ar -1.315439e+00 0.000000e+00 0.000000e+00
1
Step 508000
Ar -1.315511e+00 0.000000e+00 0.000000e+00
1
Step 509000
Ar -1.305671e+00 0.000000e+00 0.000000e+00
1
Step 510000
Ar -1.323997e+00 0.000000e+00 0.000000e+00
1
Step 511000
Ar -1.310238e+00 0.000000e+00 0.000000e+00
1
Step 512000
Ar -1.311339e+00 0.000000e+00 0.000000e+00
1
Step 513000
Ar -1.310005e+00 0.000000e+00 0.000000e+00
1
Step 514000
Ar -1.305351e+00 0.000000e+00 0.000000e+00
1
Step 515000
Ar -1.307719e+00 0.000000e+00 0.000000e+00
1
Step 516000
Ar -1.201141e+00 0.000000e+00 0.000000e+00
1
Step 517000
Ar -1.198298e+00 0.000000e+00 0.000000e+00
1
Step 518000
Ar -1.199517e+00 0.000000e+00 0.000000e+00
1
Step 519000
Ar -1.255111e+00 0.000000e+00 0.000000e+00
1
Step 520000
Ar -1.268871e+00 0.000000e+00 0.000000e+00
1
Step 521000
Ar -1.254285e+00 0.000000e+00 0.000000e+00
1
Step 522000
Ar -1.249806e+00 0.000000e+00 0.000000e+00
1
Step 523000
Ar -1.248837e+00 0.000000e+00 0.000000e+00
1
Step 524000
Ar -1.250204e+00 0.000000e+00 0.000000e+00
1
Step 525000
Ar -1.247412e+00 0.000000e+00 0.000000e+00
1
Step 526000
Ar -1.259070e+00 0.000000e+00 0.000000e+00
1
Step 527000
Ar -1.261549e+00 0.000000e+00 0.000000e+00
1
Step 528000
Ar -1.261545e+00 0.000000e+00 0.000000e+00
1
Step 529000
Ar -1.258368e+00 0.000000e+00 0.000000e+00
1
Step 530000
Ar -1.256265e+00 0.000000e+00 0.000000e+00
1
Step 531000
Ar -1.280568e+00 0.000000e+00 0.000000e+00
1
Step 532000
Ar -1.282616e+00 0.000000e+00 0.000000e+00
1
Step 533000
Ar -1.282148e+00 0.000000e+00 0.000000e+00
1
Step 534000
Ar -1.280956e+00 0.000000e+00 0.000000e+00
1
Step 535000
Ar -1.279796e+00 0.000000e+00 0.000000e+00
1
Step 536000
Ar -1.384815e+00 0.000000e+00 0.000000e+00
1
Step 537000
Ar -1.379759e+00 0.000000e+00 0.000000e+00
1
Step 538000
Ar -1.381551e+00 0.000000e+00 0.000000e+00
1
Step 539000
Ar -1.382381e+00 0.000000e+00 0.000000e+00
1
Step 540000
Ar -1.392243e+00 0.000000e+00 0.000000e+00
1
Step 541000
Ar -1.016813e+00 0.000000e+00 0.000000e+00
1
Step 542000
Ar -1.010977e+00 0.000000e+00 0.000000e+00
1
Step 543000
Ar -1.005339e+00 0.000000e+00 0.000000e+00
1
Step 544000
Ar -1.007757e+00 0.000000e+00 0.000000e+00
1
Step 545000
Ar -1.004101e+00 0.000000e+00 0.000000e+00
1
Step 546000
Ar -1.171873e+00 0.000000e+00 0.000000e+00
1
Step 547000
Ar -1.171042e+00 0.000000e+00 0.000000e+00
1
Step 548000
Ar -1.170167e+00 0.000000e+00 0.000000e+00
1
Step 549000
Ar -9.930694e-01 0.000000e+00 0.000000e+00
1
Step 550000
Ar -1.042097e+00 0.000000e+00 0.000000e+00
1
Step 551000
Ar -1.085940e+00 0.000000e+00 0.000000e+00
1
Step 552000
Ar -1.087100e+00 0.000000e+00 0.000000e+00
1
Step 553000
Ar -1.064919e+00 0.000000e+00 0.000000e+00
1
Step 554000
Ar -1.046435e+00 0.000000e+00 0.000000e+00
1
Step 555000
Ar -1.119595e+00 0.000000e+00 0.000000e+00
1
Step 556000
Ar -1.432407e+00 0.000000e+00 0.000000e+00
1
Step 557000
Ar -1.456151e+00 0.000000e+00 0.000000e+00
1
Step 558000
Ar -1.416717e+00 0.000000e+00 0.000000e+00
1
Step 559000
Ar -1.464516e+00 0.000000e+00 0.000000e+00
1
Step 560000
Ar -1.425453e+00 0.000000e+00 0.000000e+00
1
Step 561000
Ar -1.439638e+00 0.000000e+00 0.000000e+00
1
Step 562000
Ar -1.435458e+00 0.000000e+00 0.000000e+00
1
Step 563000
Ar -1.440654e+00 0.000000e+00 0.000000e+00
1
Step 564000
Ar -1.438170e+00 0.000000e+00 0.000000e+00
1
Step 565000
Ar -1.444388e+00 0.000000e+00 0.000000e+00
1
Step 566000
Ar -4.159358e-01 0.000000e+00 0.000000e+00
1
Step 567000
Ar -4.254408e-01 0.000000e+00 0.000000e+00
1
Step 568000
Ar -4.081336e-01 0.000000e+00 0.000000e+00
1
Step 569000
Ar -4.154047e-01 0.000000e+00 0.000000e+00
1
Step 570000
Ar -4.188192e-01 0.000000e+00 0.000000e+00
1
Step 571000
Ar -4.059055e-01 0.000000e+00 0.000000e+00
1
Step 572000
Ar -4.043418e-01 0.000000e+00 0.000000e+00
1
Step 573000
Ar -3.986896e-01 0.000000e+00 0.000000e+00
1
Step 574000
Ar -4.062958e-01 0.000000e+00 0.000000e+00
1
Step 575000
Ar -4.047593e-01 0.000000e+00 0.000000e+00
1
Step 576000
Ar -4.591056e-01 0.000000e+00 0.000000e+00
1
Step 577000
Ar -4.586373e-01 0.000000e+00 0.000000e+00
1
Step 578000
Ar -4.610177e-01 0.000000e+00 0.000000e+00
1
Step 579000
Ar -4.601290e-01 0.000000e+00 0.000000e+00
1
Step 580000
Ar -4.634894e-01 0.000000e+00 0.000000e+00
1
Step 581000
Ar -3.346758e-01 0.000000e+00 0.000000e+00
1
Step 582000
Ar -3.626132e-01 0.000000e+00 0.000000e+00
1
Step 583000
Ar 5.999100e-01 0.000000e+00 0.000000e+00
1
Step 584000
Ar 5.594414e-01 0.000000e+00 0.000000e+00
1
Step 585000
Ar 6.387039e-01 0.000000e+00 0.000000e+00
1
Step 586000
Ar 5.793858e-01 0.000000e+00 0.000000e+00
1
Step 587000
Ar 5.735817e-01 0.000000e+00 0.000000e+00
1
Step 588000
Ar 6.270801e-01 0.000000e+00 0.000000e+00
1
Step 589000
Ar 5.848018e-01 0.000000e+00 0.000000e+00
1
Step 590000
Ar 5.638410e-01 0.000000e+00 0.000000e+00
1
Step 591000
Ar 5.263110e-01 0.000000e+00 0.000000e+00
1
Step 592000
Ar 5.270322e-01 0.000000e+00 0.000000e+00
1
Step 593000
Ar 4.937900e-01 0.000000e+00 0.000000e+00
1
Step 594000
Ar 4.913737e-01 0.000000e+00 0.000000e+00
1
Step 595000
Ar 5.501496e-01 0.000000e+00 0.000000e+00
1
Step 596000
Ar 5.044712e-01 0.000000e+00 0.000000e+00
1
Step 597000
Ar -3.152517e-01 0.000000e+00 0.000000e+00
1
Step 598000
Ar 4.472816e-02 0.000000e+00 0.000000e+00
1
Step 599000
Ar 5.263781e-01 0.000000e+00 0.000000e+00
1
Step 600000
Ar 4.722213e-01 0.000000e+00 0.000000e+00
1
Step 601000
Ar -1.632254e-01 0.000000e+00 0.000000e+00
1
Step 602000
Ar 1.500059e-01 0.000000e+00 0.000000e+00
1
Step 603000
Ar 3.075368e-01 0.000000e+00 0.000000e+00
1
Step 604000
Ar 2.731692e-01 0.000000e+00 0.000000e+00
1
Step 605000
Ar 2.726347e-01 0.000000e+00 0.000000e+00
1
Step 606000
Ar -5.098681e-02 0.000000e+00 0.000000e+00
1
Step 607000
Ar -3.362431e-01 0.000000e+00 0.000000e+00
1
Step 608000
Ar -2.056270e-01 0.000000e+00 0.000000e+00
1
Step 609000
Ar -2.243040e-01 0.000000e+00 0.000000e+00
1
Step 610000
Ar -5.826477e-02 0.000000e+00 0.000000e+00
1
Step 611000
Ar -2.794695e-01 0.000000e+00 0.000000e+00
1
Step 612000
Ar -3.599902e-01 0.000000e+00 0.000000e+00
1
Step 613000
Ar -1.009386e-01 0.000000e+00 0.000000e+00
1
Step 614000
Ar -3.435231e-01 0.000000e+00 0.000000e+00
1
Step 615000
Ar -3.530047e-01 0.000000e+00 0.000000e+00
1
Step 616000
Ar -3.720402e-01 0.000000e+00 0.000000e+00
1
Step 617000
Ar -2.932121e-01 0.000000e+00 0.000000e+00
1
Step 618000
Ar -7.201961e-02 0.000000e+00 0.000000e+00
1
Step 619000
Ar -3.216779e-01 0.000000e+00 0.000000e+00
1
Step 620000
Ar -3.062352e-01 0.000000e+00 0.000000e+00
1
Step 621000
Ar -7.344751e-02 0.000000e+00 0.000000e+00
1
Step 622000
Ar -7.293283e-02 0.000000e+00 0.000000e+00
1
Step 623000
Ar -2.820897e-01 0.000000e+00 0.000000e+00
1
Step 624000
Ar -1.034809e-01 0.000000e+00 0.000000e+00
1
Step 625000
Ar -2.663279e-01 0.000000e+00 0.000000e+00
1
Step 626000
Ar -1.511563e-01 0.000000e+00 0.000000e+00
1
Step 627000
Ar -1.181428e-01 0.000000e+00 0.000000e+00
1
Step 628000
Ar -7.800493e-02 0.000000e+00 0.000000e+00
1
Step 629000
Ar -1.397850e-01 0.000000e+00 0.000000e+00
1
Step 630000
Ar -2.488974e-01 0.000000e+00 0.000000e+00
1
Step 631000
Ar -1.084789e-01 0.000000e+00 0.000000e+00
1
Step 632000
Ar -2.148532e-01 0.000000e+00 0.000000e+00
1
Step 633000
Ar -2.243233e-01 0.000000e+00 0.000000e+00
1
Step 634000
Ar -1.088686e-01 0.000000e+00 0.000000e+00
1
Step 635000
Ar -1.420264e-01 0.000000e+00 0.000000e+00
1
Step 636000
Ar -1.179216e-01 0.000000e+00 0.000000e+00
1
Step 637000
Ar -1.150327e-01 0.000000e+00 0.000000e+00
1
Step 638000
Ar -8.837671e-02 0.000000e+00 0.000000e+00
1
Step 639000
Ar -1.196087e-01 0.000000e+00 0.000000e+00
1
Step 640000
Ar -1.249174e-01 0.000000e+00 0.000000e+00
1
Step 641000
Ar -8.049279e-02 0.000000e+00 0.000000e+00
1
Step 642000
Ar -7.320800e-02 0.000000e+00 0.000000e+00
1
Step 643000
Ar -1.079275e-01 0.000000e+00 0.000000e+00
1
Step 644000
Ar -9.010015e-02 0.000000e+00 0.000000e+00
1
Step 645000
Ar -7.657774e-02 0.000000e+00 0.000000e+00
1
Step 646000
Ar -3.706547e-01 0.000000e+00 0.000000e+00
1
Step 647000
Ar -3.688613e-01 0.000000e+00 0.000000e+00
1
Step 648000
Ar -3.707753e-01 0.000000e+00 0.000000e+00
1