1
Step 120000
Ar 9.747667e-01 0.000000e+00 0.000000e+00
1
Step 121000
Ar 1.098483e+00 0.000000e+00 0.000000e+00
1
Step 122000
Ar 8.757549e-01 0.000000e+00 0.000000e+00
1
Step 123000
Ar 7.591096e-01 0.000000e+00 0.000000e+00
1
Step 124000
Ar 8.349729e-01 0.000000e+00 0.000000e+00
1
Step 125000
Ar 8.157158e-01 0.000000e+00 0.000000e+00
1
Step 126000
Ar 7.714027e-01 0.000000e+00 0.000000e+00
1
Step 127000
Ar 8.587753e-01 0.000000e+00 0.000000e+00
1
Step 128000
Ar 8.479212e-01 0.000000e+00 0.000000e+00
1
Step 129000
Ar 7.861368e-01 0.000000e+00 0.000000e+00
1
Step 130000
Ar 7.282942e-01 0.000000e+00 0.000000e+00
1
Step 131000
Ar 1.019652e+00 0.000000e+00 0.000000e+00
1
Step 132000
Ar 1.074873e+00 0.000000e+00 0.000000e+00
1
Step 133000
Ar 1.160553e+00 0.000000e+00 0.000000e+00
1
Step 134000
Ar 1.181110e+00 0.000000e+00 0.000000e+00
1
Step 135000
Ar 1.129620e+00 0.000000e+00 0.000000e+00
1
Step 136000
Ar 1.139803e+00 0.000000e+00 0.000000e+00
1
Step 137000
Ar 1.168844e+00 0.000000e+00 0.000000e+00
1
Step 138000
Ar 1.192877e+00 0.000000e+00 0.000000e+00
1
Step 139000
Ar 1.210021e+00 0.000000e+00 0.000000e+00
1
Step 140000
Ar 1.227804e+00 0.000000e+00 0.000000e+00
1
Step 141000
Ar 1.118217e+00 0.000000e+00 0.000000e+00
1
Step 142000
Ar 1.050040e+00 0.000000e+00 0.000000e+00
1
Step 143000
Ar 9.248233e-01 0.000000e+00 0.000000e+00
1
Step 144000
Ar 9.576304e-01 0.000000e+00 0.000000e+00
1
Step 145000
Ar 9.084865e-01 0.000000e+00 0.000000e+00
1
Step 146000
Ar 8.011601e-01 0.000000e+00 0.000000e+00
1
Step 147000
Ar 1.001208e+00 0.000000e+00 0.000000e+00
1
Step 148000
Ar 9.845119e-01 0.000000e+00 0.000000e+00
1
Step 149000
Ar 1.061047e+00 0.000000e+00 0.000000e+00
1
Step 150000
Ar 1.033816e+00 0.000000e+00 0.000000e+00
1
Step 151000
Ar 9.003996e-01 0.000000e+00 0.000000e+00
1
Step 152000
Ar 8.877158e-01 0.000000e+00 0.000000e+00
1
Step 153000
Ar 9.670240e-01 0.000000e+00 0.000000e+00
1
Step 154000
Ar 9.782580e-01 0.000000e+00 0.000000e+00
1
Step 155000
Ar 8.247083e-01 0.000000e+00 0.000000e+00
1
Step 156000
Ar 6.707730e-01 0.000000e+00 0.000000e+00
1
Step 157000
Ar 6.914707e-01 0.000000e+00 0.000000e+00
1
Step 158000
Ar 1.352632e+00 0.000000e+00 0.000000e+00
1
Step 159000
Ar 6.997962e-01 0.000000e+00 0.000000e+00
1
Step 160000
Ar 7.439996e-01 0.000000e+00 0.000000e+00
1
Step 161000
Ar 8.131502e-01 0.000000e+00 0.000000e+00
1
Step 162000
Ar 9.423848e-01 0.000000e+00 0.000000e+00
1
Step 163000
Ar 9.400540e-01 0.000000e+00 0.000000e+00
1
Step 164000
Ar 8.699204e-01 0.000000e+00 0.000000e+00
1
Step 165000
Ar 9.256165e-01 0.000000e+00 0.000000e+00
1
Step 166000
Ar 1.274658e+00 0.000000e+00 0.000000e+00
1
Step 167000
Ar 1.314610e+00 0.000000e+00 0.000000e+00
1
Step 168000
Ar 1.240932e+00 0.000000e+00 0.000000e+00
1
Step 169000
Ar 9.542961e-01 0.000000e+00 0.000000e+00
1
Step 170000
Ar 1.222870e+00 0.000000e+00 0.000000e+00
1
Step 171000
Ar 1.001614e+00 0.000000e+00 0.000000e+00
1
Step 172000
Ar 9.870958e-01 0.000000e+00 0.000000e+00
1
Step 173000
Ar 1.202148e+00 0.000000e+00 0.000000e+00
1
Step 174000
Ar 1.085690e+00 0.000000e+00 0.000000e+00
1
Step 175000
Ar 1.109308e+00 0.000000e+00 0.000000e+00
1
Step 176000
Ar 1.051139e+00 0.000000e+00 0.000000e+00
1
Step 177000
Ar 1.148274e+00 0.000000e+00 0.000000e+00
1
Step 178000
Ar 1.090798e+00 0.000000e+00 0.000000e+00
1
Step 179000
Ar 1.107088e+00 0.000000e+00 0.000000e+00
1
Step 180000
Ar 1.064951e+00 0.000000e+00 0.000000e+00
1
Step 181000
Ar 1.252289e+00 0.000000e+00 0.000000e+00
1
Step 182000
Ar 1.288589e+00 0.000000e+00 0.000000e+00
1
Step 183000
Ar 1.328461e+00 0.000000e+00 0.000000e+00
1
Step 184000
Ar 1.302340e+00 0.000000e+00 0.000000e+00
1
Step 185000
Ar 1.264834e+00 0.000000e+00 0.000000e+00
1
Step 186000
Ar 1.362166e+00 0.000000e+00 0.000000e+00
1
Step 187000
Ar 1.240003e+00 0.000000e+00 0.000000e+00
1
Step 188000
Ar 1.301222e+00 0.000000e+00 0.000000e+00
1
Step 189000
Ar 1.147943e+00 0.000000e+00 0.000000e+00
1
Step 190000
Ar 1.194231e+00 0.000000e+00 0.000000e+00
1
Step 191000
Ar 1.174858e+00 0.000000e+00 0.000000e+00
1
Step 192000
Ar 1.160345e+00 0.000000e+00 0.000000e+00
1
Step 193000
Ar 1.235098e+00 0.000000e+00 0.000000e+00
1
Step 194000
Ar 7.139859e-01 0.000000e+00 0.000000e+00
1
Step 195000
Ar 7.758933e-01 0.000000e+00 0.000000e+00
1
Step 196000
Ar 5.909931e-01 0.000000e+00 0.000000e+00
1
Step 197000
Ar 6.415542e-01 0.000000e+00 0.000000e+00
1
Step 198000
Ar 6.797191e-01 0.000000e+00 0.000000e+00
1
Step 199000
Ar 6.131757e-01 0.000000e+00 0.000000e+00
1
Step 200000
Ar 6.517262e-01 0.000000e+00 0.000000e+00
1
Step 201000
Ar 6.610992e-01 0.000000e+00 0.000000e+00
1
Step 202000
Ar 5.789267e-01 0.000000e+00 0.000000e+00
1
Step 203000
Ar 5.348178e-01 0.000000e+00 0.000000e+00
1
Step 204000
Ar 4.463602e-01 0.000000e+00 0.000000e+00
1
Step 205000
Ar 4.038763e-01 0.000000e+00 0.000000e+00
1
Step 206000
Ar 2.657474e-01 0.000000e+00 0.000000e+00
1
Step 207000
Ar 3.170070e-01 0.000000e+00 0.000000e+00
1
Step 208000
Ar 2.763392e-01 0.000000e+00 0.000000e+00
1
Step 209000
Ar -9.119810e-01 0.000000e+00 0.000000e+00
1
Step 210000
Ar -1.169570e+00 0.000000e+00 0.000000e+00
1
Step 211000
Ar -1.306825e+00 0.000000e+00 0.000000e+00
1
Step 212000
Ar -1.272225e+00 0.000000e+00 0.000000e+00
1
Step 213000
Ar -9.846342e-01 0.000000e+00 0.000000e+00
1
Step 214000
Ar -1.117778e+00 0.000000e+00 0.000000e+00
1
Step 215000
Ar -1.072197e+00 0.000000e+00 0.000000e+00
1
Step 216000
Ar -1.146006e+00 0.000000e+00 0.000000e+00
1
Step 217000
Ar -7.819384e-01 0.000000e+00 0.000000e+00
1
Step 218000
Ar -8.357410e-01 0.000000e+00 0.000000e+00
1
Step 219000
Ar -8.540067e-01 0.000000e+00 0.000000e+00
1
Step 220000
Ar -8.672968e-01 0.000000e+00 0.000000e+00
1
Step 221000
Ar -7.631327e-01 0.000000e+00 0.000000e+00
1
Step 222000
Ar -7.118822e-01 0.000000e+00 0.000000e+00
1
Step 223000
Ar -5.348970e-01 0.000000e+00 0.000000e+00
1
Step 224000
Ar -1.091531e+00 0.000000e+00 0.000000e+00
1
Step 225000
Ar -1.132459e+00 0.000000e+00 0.000000e+00
1
Step 226000
Ar -1.183231e+00 0.000000e+00 0.000000e+00
1
Step 227000
Ar -1.198311e+00 0.000000e+00 0.000000e+00
1
Step 228000
Ar -9.419741e-01 0.000000e+00 0.000000e+00
1
Step 229000
Ar -1.015228e+00 0.000000e+00 0.000000e+00
1
Step 230000
Ar -9.301145e-01 0.000000e+00 0.000000e+00
1
Step 231000
Ar -1.058129e+00 0.000000e+00 0.000000e+00
1
Step 232000
Ar -1.104129e+00 0.000000e+00 0.000000e+00
1
Step 233000
Ar -8.953290e-01 0.000000e+00 0.000000e+00
1
Step 234000
Ar -1.033529e+00 0.000000e+00 0.000000e+00
1
Step 235000
Ar -9.737068e-01 0.000000e+00 0.000000e+00
1
Step 236000
Ar -9.982077e-01 0.000000e+00 0.000000e+00
1
Step 237000
Ar -1.045540e+00 0.000000e+00 0.000000e+00
1
Step 238000
Ar -8.845884e-01 0.000000e+00 0.000000e+00
1
Step 239000
Ar -8.200976e-01 0.000000e+00 0.000000e+00
1
Step 240000
Ar -7.992005e-01 0.000000e+00 0.000000e+00
1
Step 241000
Ar -9.546423e-01 0.000000e+00 0.000000e+00
1
Step 242000
Ar -9.614484e-01 0.000000e+00 0.000000e+00
1
Step 243000
Ar -1.220277e+00 0.000000e+00 0.000000e+00
1
Step 244000
Ar -1.065167e+00 0.000000e+00 0.000000e+00
1
Step 245000
Ar -8.146491e-01 0.000000e+00 0.000000e+00
1
Step 246000
Ar -5.770553e-01 0.000000e+00 0.000000e+00
1
Step 247000
Ar -6.736718e-01 0.000000e+00 0.000000e+00
1
Step 248000
Ar -7.694978e-01 0.000000e+00 0.000000e+00
1
Step 249000
Ar -9.481685e-01 0.000000e+00 0.000000e+00
1
Step 250000
Ar -1.154354e+00 0.000000e+00 0.000000e+00
1
Step 251000
Ar -1.188309e+00 0.000000e+00 0.000000e+00
1
Step 252000
Ar -1.290711e+00 0.000000e+00 0.000000e+00
1
Step 253000
Ar -9.191208e-01 0.000000e+00 0.000000e+00
1
Step 254000
Ar -8.658686e-01 0.000000e+00 0.000000e+00
1
Step 255000
Ar -1.037195e+00 0.000000e+00 0.000000e+00
1
Step 256000
Ar -1.386828e+00 0.000000e+00 0.000000e+00
1
Step 257000
Ar -1.007843e+00 0.000000e+00 0.000000e+00
1
Step 258000
Ar -1.020887e+00 0.000000e+00 0.000000e+00
1
Step 259000
Ar -1.112377e+00 0.000000e+00 0.000000e+00
1
Step 260000
Ar -1.087437e+00 0.000000e+00 0.000000e+00
1
Step 261000
Ar -1.072092e+00 0.000000e+00 0.000000e+00
1
Step 262000
Ar -1.135758e+00 0.000000e+00 0.000000e+00
1
Step 263000
Ar -1.195204e+00 0.000000e+00 0.000000e+00
1
Step 264000
Ar -1.124261e+00 0.000000e+00 0.000000e+00
1
Step 265000
Ar -1.082412e+00 0.000000e+00 0.000000e+00
1
Step 266000
Ar -1.080246e+00 0.000000e+00 0.000000e+00
1
Step 267000
Ar -9.693961e-01 0.000000e+00 0.000000e+00
1
Step 268000
Ar -9.031845e-01 0.000000e+00 0.000000e+00
1
Step 269000
Ar -9.070235e-01 0.000000e+00 0.000000e+00
1
Step 270000
Ar -1.050685e+00 0.000000e+00 0.000000e+00
1
Step 271000
Ar -9.362851e-01 0.000000e+00 0.000000e+00
1
Step 272000
Ar -9.998165e-01 0.000000e+00 0.000000e+00
1
Step 273000
Ar -1.023791e+00 0.000000e+00 0.000000e+00
1
Step 274000
Ar -1.031041e+00 0.000000e+00 0.000000e+00
1
Step 275000
Ar -6.878968e-01 0.000000e+00 0.000000e+00
1
Step 276000
Ar -7.507304e-01 0.000000e+00 0.000000e+00
1
Step 277000
Ar -6.151952e-01 0.000000e+00 0.000000e+00
1
Step 278000
Ar -5.983811e-01 0.000000e+00 0.000000e+00
1
Step 279000
Ar -6.541461e-01 0.000000e+00 0.000000e+00
1
Step 280000
Ar -7.358341e-01 0.000000e+00 0.000000e+00
1
Step 281000
Ar -6.967209e-01 0.000000e+00 0.000000e+00
1
Step 282000
Ar -6.424403e-01 0.000000e+00 0.000000e+00
1
Step 283000
Ar -5.893724e-01 0.000000e+00 0.000000e+00
1
Step 284000
Ar -7.418296e-01 0.000000e+00 0.000000e+00
1
Step 285000
Ar -8.066832e-01 0.000000e+00 0.000000e+00
1
Step 286000
Ar -6.998001e-01 0.000000e+00 0.000000e+00
1
Step 287000
Ar -8.756036e-01 0.000000e+00 0.000000e+00
1
Step 288000
Ar -8.776528e-01 0.000000e+00 0.000000e+00
1
Step 289000
Ar -9.850536e-01 0.000000e+00 0.000000e+00
1
Step 290000
Ar -1.013682e+00 0.000000e+00 0.000000e+00
1
Step 291000
Ar -7.297204e-01 0.000000e+00 0.000000e+00
1
Step 292000
Ar -7.133550e-01 0.000000e+00 0.000000e+00
1
Step 293000
Ar -8.448459e-01 0.000000e+00 0.000000e+00
1
Step 294000
Ar -8.272480e-01 0.000000e+00 0.000000e+00
1
Step 295000
Ar -8.535335e-01 0.000000e+00 0.000000e+00
1
Step 296000
Ar -7.848854e-01 0.000000e+00 0.000000e+00
1
Step 297000
Ar -7.541258e-01 0.000000e+00 0.000000e+00
1
Step 298000
Ar -7.917048e-01 0.000000e+00 0.000000e+00
1
Step 299000
Ar -8.385848e-01 0.000000e+00 0.000000e+00
1
Step 300000
Ar -1.314859e+00 0.000000e+00 0.000000e+00
1
Step 301000
Ar -1.346276e+00 0.000000e+00 0.000000e+00
1
Step 302000
Ar -1.329397e+00 0.000000e+00 0.000000e+00
1
Step 303000
Ar -1.366184e+00 0.000000e+00 0.000000e+00
1
Step 304000
Ar -1.391655e+00 0.000000e+00 0.000000e+00
1
Step 305000
Ar -1.411413e+00 0.000000e+00 0.000000e+00
1
Step 306000
Ar -1.436497e+00 0.000000e+00 0.000000e+00
1
Step 307000
Ar -1.399032e+00 0.000000e+00 0.000000e+00
1
Step 308000
Ar -1.427260e+00 0.000000e+00 0.000000e+00
1
Step 309000
Ar -1.483035e+00 0.000000e+00 0.000000e+00
1
Step 310000
Ar -1.499955e+00 0.000000e+00 0.000000e+00
1
Step 311000
Ar -1.059260e+00 0.000000e+00 0.000000e+00
1
Step 312000
Ar -1.046758e+00 0.000000e+00 0.000000e+00
1
Step 313000
Ar -6.285622e-01 0.000000e+00 0.000000e+00
1
Step 314000
Ar -3.955997e-01 0.000000e+00 0.000000e+00
1
Step 315000
Ar 4.906418e-02 0.000000e+00 0.000000e+00
1
Step 316000
Ar -3.454394e-01 0.000000e+00 0.000000e+00
1
Step 317000
Ar -4.221354e-01 0.000000e+00 0.000000e+00
1
Step 318000
Ar -5.643613e-01 0.000000e+00 0.000000e+00
1
Step 319000
Ar -4.834978e-01 0.000000e+00 0.000000e+00
1
Step 320000
Ar -4.485389e-01 0.000000e+00 0.000000e+00
1
Step 321000
Ar -3.658686e-01 0.000000e+00 0.000000e+00
1
Step 322000
Ar -3.907532e-01 0.000000e+00 0.000000e+00
1
Step 323000
Ar -5.226452e-01 0.000000e+00 0.000000e+00
1
Step 324000
Ar -5.465374e-01 0.000000e+00 0.000000e+00
1
Step 325000
Ar -6.035763e-01 0.000000e+00 0.000000e+00
1
Step 326000
Ar -6.678047e-01 0.000000e+00 0.000000e+00
1
Step 327000
Ar -6.414658e-01 0.000000e+00 0.000000e+00
1
Step 328000
Ar -7.762886e-01 0.000000e+00 0.000000e+00
1
Step 329000
Ar -7.309176e-01 0.000000e+00 0.000000e+00
1
Step 330000
Ar -6.824778e-01 0.000000e+00 0.000000e+00
1
Step 331000
Ar -7.054338e-01 0.000000e+00 0.000000e+00
1
Step 332000
Ar -5.020503e-01 0.000000e+00 0.000000e+00
1
Step 333000
Ar -5.535272e-01 0.000000e+00 0.000000e+00
1
Step 334000
Ar -6.244971e-01 0.000000e+00 0.000000e+00
1
Step 335000
Ar -4.917216e-01 0.000000e+00 0.000000e+00
1
Step 336000
Ar -4.067480e-01 0.000000e+00 0.000000e+00
1
Step 337000
Ar -4.610349e-01 0.000000e+00 0.000000e+00
1
Step 338000
Ar -4.694242e-01 0.000000e+00 0.000000e+00
1
Step 339000
Ar -5.132274e-01 0.000000e+00 0.000000e+00
1
Step 340000
Ar -4.312561e-01 0.000000e+00 0.000000e+00
1
Step 341000
Ar -4.553212e-01 0.000000e+00 0.000000e+00
1
Step 342000
Ar -2.732681e-01 0.000000e+00 0.000000e+00
1
Step 343000
Ar -2.472657e-01 0.000000e+00 0.000000e+00
1
Step 344000
Ar -4.252909e-02 0.000000e+00 0.000000e+00
1
Step 345000
Ar -1.557431e-01 0.000000e+00 0.000000e+00
1
Step 346000
Ar -2.072279e-01 0.000000e+00 0.000000e+00
1
Step 347000
Ar -1.841899e-01 0.000000e+00 0.000000e+00
1
Step 348000
Ar -1.910515e-01 0.000000e+00 0.000000e+00
1
Step 349000
Ar -3.282459e-01 0.000000e+00 0.000000e+00
1
Step 350000
Ar -2.920717e-01 0.000000e+00 0.000000e+00
1
Step 351000
Ar -3.773077e-01 0.000000e+00 0.000000e+00
1
Step 352000
Ar -5.891181e-01 0.000000e+00 0.000000e+00
1
Step 353000
Ar -4.994106e-01 0.000000e+00 0.000000e+00
1
Step 354000
Ar -5.130976e-01 0.000000e+00 0.000000e+00
1
Step 355000
Ar -4.158482e-01 0.000000e+00 0.000000e+00
1
Step 356000
Ar 5.571624e-01 0.000000e+00 0.000000e+00
1
Step 357000
Ar 5.037582e-01 0.000000e+00 0.000000e+00
1
Step 358000
Ar 4.963463e-01 0.000000e+00 0.000000e+00
1
Step 359000
Ar 3.773795e-01 0.000000e+00 0.000000e+00
1
Step 360000
Ar 4.587401e-01 0.000000e+00 0.000000e+00
1
Step 361000
Ar 1.666410e-01 0.000000e+00 0.000000e+00
1
Step 362000
Ar 1.576710e-01 0.000000e+00 0.000000e+00
1
Step 363000
Ar 1.368582e-01 0.000000e+00 0.000000e+00
1
Step 364000
Ar 9.488520e-02 0.000000e+00 0.000000e+00
1
Step 365000
Ar 1.219812e-01 0.000000e+00 0.000000e+00
1
Step 366000
Ar 1.458666e-01 0.000000e+00 0.000000e+00
1
Step 367000
Ar 6.836830e-01 0.000000e+00 0.000000e+00
1
Step 368000
Ar 9.173520e-01 0.000000e+00 0.000000e+00
1
Step 369000
Ar 8.927593e-01 0.000000e+00 0.000000e+00
1
Step 370000
Ar 8.454253e-01 0.000000e+00 0.000000e+00
1
Step 371000
Ar 1.082310e+00 0.000000e+00 0.000000e+00
1
Step 372000
Ar 1.019530e+00 0.000000e+00 0.000000e+00
1
Step 373000
Ar 7.968899e-01 0.000000e+00 0.000000e+00
1
Step 374000
Ar 7.912341e-01 0.000000e+00 0.000000e+00
1
Step 375000
Ar 7.372846e-01 0.000000e+00 0.000000e+00
1
Step 376000
Ar 7.202882e-01 0.000000e+00 0.000000e+00
1
Step 377000
Ar 7.027415e-01 0.000000e+00 0.000000e+00
1
Step 378000
Ar 8.666644e-01 0.000000e+00 0.000000e+00
1
Step 379000
Ar 9.039397e-01 0.000000e+00 0.000000e+00
1
Step 380000
Ar 8.306868e-01 0.000000e+00 0.000000e+00
1
Step 381000
Ar 9.441945e-01 0.000000e+00 0.000000e+00
1
Step 382000
Ar 1.012497e+00 0.000000e+00 0.000000e+00
1
Step 383000
Ar 1.039474e+00 0.000000e+00 0.000000e+00
1
Step 384000
Ar 1.069843e+00 0.000000e+00 0.000000e+00
1
Step 385000
Ar 9.648927e-01 0.000000e+00 0.000000e+00
1
Step 386000
Ar 1.024265e+00 0.000000e+00 0.000000e+00
1
Step 387000
Ar 2.407344e-01 0.000000e+00 0.000000e+00
1
Step 388000
Ar 1.880676e-01 0.000000e+00 0.000000e+00
1
Step 389000
Ar 1.078096e-01 0.000000e+00 0.000000e+00
1
Step 390000
Ar 7.618717e-02 0.000000e+00 0.000000e+00
1
Step 391000
Ar 6.425490e-02 0.000000e+00 0.000000e+00
1
Step 392000
Ar 4.851342e-01 0.000000e+00 0.000000e+00
1
Step 393000
Ar 4.707484e-01 0.000000e+00 0.000000e+00
1
Step 394000
Ar 4.242529e-01 0.000000e+00 0.000000e+00
1
Step 395000
Ar 2.941950e-01 0.000000e+00 0.000000e+00
1
Step 396000
Ar 6.320385e-01 0.000000e+00 0.000000e+00
1
Step 397000
Ar 5.247189e-01 0.000000e+00 0.000000e+00
1
Step 398000
Ar 6.073676e-01 0.000000e+00 0.000000e+00
1
Step 399000
Ar 6.011982e-01 0.000000e+00 0.000000e+00
1
Step 400000
Ar 5.481512e-01 0.000000e+00 0.000000e+00
1
Step 401000
Ar 5.715939e-01 0.000000e+00 0.000000e+00
1
Step 402000
Ar 5.445187e-01 0.000000e+00 0.000000e+00
1
Step 403000
Ar 8.749162e-01 0.000000e+00 0.000000e+00
1
Step 404000
Ar 9.151749e-01 0.000000e+00 0.000000e+00
1
Step 405000
Ar 9.874544e-01 0.000000e+00 0.000000e+00
1
Step 406000
Ar 1.137002e+00 0.000000e+00 0.000000e+00
1
Step 407000
Ar 1.119698e+00 0.000000e+00 0.000000e+00
1
Step 408000
Ar 1.172915e+00 0.000000e+00 0.000000e+00
1
Step 409000
Ar 1.045638e+00 0.000000e+00 0.000000e+00
1
Step 410000
Ar 1.037707e+00 0.000000e+00 0.000000e+00
1
Step 411000
Ar 1.123619e+00 0.000000e+00 0.000000e+00
1
Step 412000
Ar 1.220957e+00 0.000000e+00 0.000000e+00
1
Step 413000
Ar 1.206822e+00 0.000000e+00 0.000000e+00
1
Step 414000
Ar 1.378237e+00 0.000000e+00 0.000000e+00
1
Step 415000
Ar 1.029462e+00 0.000000e+00 0.000000e+00
1
Step 416000
Ar 1.078662e+00 0.000000e+00 0.000000e+00
1
Step 417000
Ar 6.408296e-01 0.000000e+00 0.000000e+00
1
Step 418000
Ar 7.531844e-01 0.000000e+00 0.000000e+00
1
Step 419000
Ar 7.640847e-01 0.000000e+00 0.000000e+00
1
Step 420000
Ar 8.531965e-01 0.000000e+00 0.000000e+00
1
Step 421000
Ar 7.085883e-01 0.000000e+00 0.000000e+00
1
Step 422000
Ar 7.263662e-01 0.000000e+00 0.000000e+00
1
Step 423000
Ar 7.776311e-01 0.000000e+00 0.000000e+00
1
Step 424000
Ar 8.426925e-01 0.000000e+00 0.000000e+00
1
Step 425000
Ar 6.716049e-01 0.000000e+00 0.000000e+00
1
Step 426000
Ar 6.586522e-01 0.000000e+00 0.000000e+00
1
Step 427000
Ar 5.646150e-01 0.000000e+00 0.000000e+00
1
Step 428000
Ar 5.923256e-01 0.000000e+00 0.000000e+00
1
Step 429000
Ar 2.276159e-01 0.000000e+00 0.000000e+00
1
Step 430000
Ar -1.428409e-03 0.000000e+00 0.000000e+00
1
Step 431000
Ar -6.193288e-02 0.000000e+00 0.000000e+00
1
Step 432000
Ar 2.053253e-01 0.000000e+00 0.000000e+00
1
Step 433000
Ar 1.757122e-01 0.000000e+00 0.000000e+00
1
Step 434000
Ar 3.445809e-01 0.000000e+00 0.000000e+00
1
Step 435000
Ar 3.900045e-01 0.000000e+00 0.000000e+00
1
Step 436000
Ar 3.829949e-01 0.000000e+00 0.000000e+00
1
Step 437000
Ar 4.327061e-01 0.000000e+00 0.000000e+00
1
Step 438000
Ar 5.140745e-01 0.000000e+00 0.000000e+00
1
Step 439000
Ar 4.751799e-01 0.000000e+00 0.000000e+00
1
Step 440000
Ar 6.232144e-01 0.000000e+00 0.000000e+00
1
Step 441000
Ar 4.129236e-01 0.000000e+00 0.000000e+00
1
Step 442000
Ar 3.343509e-01 0.000000e+00 0.000000e+00
1
Step 443000
Ar 3.239281e-01 0.000000e+00 0.000000e+00
1
Step 444000
Ar 1.968174e-01 0.000000e+00 0.000000e+00
1
Step 445000
Ar -8.868768e-02 0.000000e+00 0.000000e+00
1
Step 446000
Ar -1.177477e-01 0.000000e+00 0.000000e+00
1
Step 447000
Ar -1.099638e-01 0.000000e+00 0.000000e+00
1
Step 448000
Ar -9.813505e-02 0.000000e+00 0.000000e+00
1
Step 449000
Ar -7.478306e-02 0.000000e+00 0.000000e+00
1
Step 450000
Ar -5.191839e-02 0.000000e+00 0.000000e+00
1
Step 451000
Ar -1.050393e-02 0.000000e+00 0.000000e+00
1
Step 452000
Ar 7.738129e-03 0.000000e+00 0.000000e+00
1
Step 453000
Ar 3.188084e-02 0.000000e+00 0.000000e+00
1
Step 454000
Ar 2.081481e-02 0.000000e+00 0.000000e+00
1
Step 455000
Ar -3.250874e-02 0.000000e+00 0.000000e+00
1
Step 456000
Ar -1.828956e-02 0.000000e+00 0.000000e+00
1
Step 457000
Ar -1.310823e-01 0.000000e+00 0.000000e+00
1
Step 458000
Ar -1.711978e-01 0.000000e+00 0.000000e+00
1
Step 459000
Ar -1.450889e-01 0.000000e+00 0.000000e+00
1
Step 460000
Ar -3.551257e-01 0.000000e+00 0.000000e+00
1
Step 461000
Ar -3.054910e-01 0.000000e+00 0.000000e+00
1
Step 462000
Ar -2.600328e-01 0.000000e+00 0.000000e+00
1
Step 463000
Ar -2.163747e-01 0.000000e+00 0.000000e+00
1
Step 464000
Ar -2.355425e-01 0.000000e+00 0.000000e+00
1
Step 465000
Ar -2.950894e-01 0.000000e+00 0.000000e+00
1
Step 466000
Ar -4.392104e-01 0.000000e+00 0.000000e+00
1
Step 467000
Ar -4.766439e-01 0.000000e+00 0.000000e+00
1
Step 468000
Ar -6.324795e-01 0.000000e+00 0.000000e+00
1
Step 469000
Ar -6.584395e-01 0.000000e+00 0.000000e+00
1
Step 470000
Ar -7.589416e-01 0.000000e+00 0.000000e+00
1
Step 471000
Ar -1.176482e+00 0.000000e+00 0.000000e+00
1
Step 472000
Ar -1.150388e+00 0.000000e+00 0.000000e+00
1
Step 473000
Ar -1.141282e+00 0.000000e+00 0.000000e+00
1
Step 474000
Ar -1.092814e+00 0.000000e+00 0.000000e+00
1
Step 475000
Ar -1.230454e+00 0.000000e+00 0.000000e+00
1
Step 476000
Ar -1.245804e+00 0.000000e+00 0.000000e+00
1
Step 477000
Ar -1.253749e+00 0.000000e+00 0.000000e+00
1
Step 478000
Ar -1.208895e+00 0.000000e+00 0.000000e+00
1
Step 479000
Ar -1.237112e+00 0.000000e+00 0.000000e+00
1
Step 480000
Ar -1.264157e+00 0.000000e+00 0.000000e+00
1
Step 481000
Ar -1.203983e+00 0.000000e+00 0.000000e+00
1
Step 482000
Ar -1.162508e+00 0.000000e+00 0.000000e+00
1
Step 483000
Ar -1.001211e+00 0.000000e+00 0.000000e+00
1
Step 484000
Ar -8.916980e-01 0.000000e+00 0.000000e+00
1
Step 485000
Ar -9.663343e-01 0.000000e+00 0.000000e+00
1
Step 486000
Ar -8.201981e-01 0.000000e+00 0.000000e+00
1
Step 487000
Ar -8.012214e-01 0.000000e+00 0.000000e+00
1
Step 488000
Ar -7.700958e-01 0.000000e+00 0.000000e+00
1
Step 489000
Ar -6.893221e-01 0.000000e+00 0.000000e+00
1
Step 490000
Ar -9.224793e-01 0.000000e+00 0.000000e+00
1
Step 491000
Ar -9.283814e-01 0.000000e+00 0.000000e+00
1
Step 492000
Ar -8.845753e-01 0.000000e+00 0.000000e+00
1
Step 493000
Ar -7.963450e-01 0.000000e+00 0.000000e+00
1
Step 494000
Ar -8.382194e-01 0.000000e+00 0.000000e+00
1
Step 495000
Ar -9.773586e-01 0.000000e+00 0.000000e+00
1
Step 496000
Ar -1.299307e+00 0.000000e+00 0.000000e+00
1
Step 497000
Ar -1.245904e+00 0.000000e+00 0.000000e+00
1
Step 498000
Ar -1.214893e+00 0.000000e+00 0.000000e+00
1
Step 499000
Ar -1.229792e+00 0.000000e+00 0.000000e+00
1
Step 500000
Ar -9.158810e-01 0.000000e+00 0.000000e+00
1
Step 501000
Ar -1.218279e+00 0.000000e+00 0.000000e+00
1
Step 502000
Ar -1.281430e+00 0.000000e+00 0.000000e+00
1
Step 503000
Ar -1.319037e+00 0.000000e+00 0.000000e+00
1
Step 504000
Ar -1.264613e+00 0.000000e+00 0.000000e+00
1
Step 505000
Ar -1.109124e+00 0.000000e+00 0.000000e+00
1
Step 506000
Ar -1.173016e+00 0.000000e+00 0.000000e+00
1
Step 507000
Ar -1.096617e+00 0.000000e+00 0.000000e+00
1
Step 508000
Ar -1.163379e+00 0.000000e+00 0.000000e+00
1
Step 509000
Ar -1.122359e+00 0.000000e+00 0.000000e+00
1
Step 510000
Ar -1.126249e+00 0.000000e+00 0.000000e+00
1
Step 511000
Ar -1.377201e+00 0.000000e+00 0.000000e+00
1
Step 512000
Ar -1.357729e+00 0.000000e+00 0.000000e+00
1
Step 513000
Ar -1.302565e+00 0.000000e+00 0.000000e+00
1
Step 514000
Ar -1.334155e+00 0.000000e+00 0.000000e+00
1
Step 515000
Ar -1.327041e+00 0.000000e+00 0.000000e+00
1
Step 516000
Ar -1.247396e+00 0.000000e+00 0.000000e+00
1
Step 517000
Ar -1.167687e+00 0.000000e+00 0.000000e+00
1
Step 518000
Ar -1.461904e+00 0.000000e+00 0.000000e+00
1
Step 519000
Ar -1.448149e+00 0.000000e+00 0.000000e+00
1
Step 520000
Ar -1.424288e+00 0.000000e+00 0.000000e+00
1
Step 521000
Ar -1.288359e+00 0.000000e+00 0.000000e+00
1
Step 522000
Ar -1.256653e+00 0.000000e+00 0.000000e+00
1
Step 523000
Ar -1.278725e+00 0.000000e+00 0.000000e+00
1
Step 524000
Ar -1.313781e+00 0.000000e+00 0.000000e+00
1
Step 525000
Ar -1.357736e+00 0.000000e+00 0.000000e+00
1
Step 526000
Ar -1.344410e+00 0.000000e+00 0.000000e+00
1
Step 527000
Ar -1.205639e+00 0.000000e+00 0.000000e+00
1
Step 528000
Ar -1.186451e+00 0.000000e+00 0.000000e+00
1
Step 529000
Ar -6.652133e-01 0.000000e+00 0.000000e+00
1
Step 530000
Ar -7.239730e-01 0.000000e+00 0.000000e+00
1
Step 531000
Ar -7.484896e-01 0.000000e+00 0.000000e+00
1
Step 532000
Ar -7.427361e-01 0.000000e+00 0.000000e+00
1
Step 533000
Ar -4.703203e-01 0.000000e+00 0.000000e+00
1
Step 534000
Ar -6.109380e-01 0.000000e+00 0.000000e+00
1
Step 535000
Ar -5.673430e-01 0.000000e+00 0.000000e+00
1
Step 536000
Ar -5.459198e-01 0.000000e+00 0.000000e+00
1
Step 537000
Ar -5.354037e-01 0.000000e+00 0.000000e+00
1
Step 538000
Ar -5.282233e-01 0.000000e+00 0.000000e+00
1
Step 539000
Ar -4.835520e-01 0.000000e+00 0.000000e+00
1
Step 540000
Ar -5.167453e-01 0.000000e+00 0.000000e+00
1
Step 541000
Ar -6.476552e-01 0.000000e+00 0.000000e+00
1
Step 542000
Ar -5.816471e-01 0.000000e+00 0.000000e+00
1
Step 543000
Ar -5.722580e-01 0.000000e+00 0.000000e+00
1
Step 544000
Ar -6.140025e-01 0.000000e+00 0.000000e+00
1
Step 545000
Ar -7.238710e-01 0.000000e+00 0.000000e+00
1
Step 546000
Ar -7.210833e-01 0.000000e+00 0.000000e+00
1
Step 547000
Ar -6.522489e-01 0.000000e+00 0.000000e+00
1
Step 548000
Ar -5.583126e-01 0.000000e+00 0.000000e+00
1
Step 549000
Ar -5.784367e-01 0.000000e+00 0.000000e+00
1
Step 550000
Ar -3.153687e-01 0.000000e+00 0.000000e+00
1
Step 551000
Ar -3.268145e-01 0.000000e+00 0.000000e+00
1
Step 552000
Ar -2.109900e-01 0.000000e+00 0.000000e+00
1
Step 553000
Ar -1.360255e-01 0.000000e+00 0.000000e+00
1
Step 554000
Ar -1.617101e-01 0.000000e+00 0.000000e+00
1
Step 555000
Ar -4.508683e-02 0.000000e+00 0.000000e+00
1
Step 556000
Ar 4.155056e-01 0.000000e+00 0.000000e+00
1
Step 557000
Ar 7.465165e-01 0.000000e+00 0.000000e+00
1
Step 558000
Ar 6.266544e-01 0.000000e+00 0.000000e+00
1
Step 559000
Ar 6.956031e-01 0.000000e+00 0.000000e+00
1
Step 560000
Ar 5.790412e-01 0.000000e+00 0.000000e+00
1
Step 561000
Ar 6.498296e-01 0.000000e+00 0.000000e+00
1
Step 562000
Ar 6.335441e-01 0.000000e+00 0.000000e+00
1
Step 563000
Ar 7.850709e-01 0.000000e+00 0.000000e+00
1
Step 564000
Ar 6.783933e-01 0.000000e+00 0.000000e+00
1
Step 565000
Ar 8.072398e-01 0.000000e+00 0.000000e+00
1
Step 566000
Ar 8.586391e-01 0.000000e+00 0.000000e+00
1
Step 567000
Ar 9.640380e-01 0.000000e+00 0.000000e+00
1
Step 568000
Ar 9.948979e-01 0.000000e+00 0.000000e+00
1
Step 569000
Ar 1.008192e+00 0.000000e+00 0.000000e+00
1
Step 570000
Ar 1.059410e+00 0.000000e+00 0.000000e+00
1
Step 571000
Ar 1.135303e+00 0.000000e+00 0.000000e+00
1
Step 572000
Ar 1.011298e+00 0.000000e+00 0.000000e+00
1
Step 573000
Ar 1.100933e+00 0.000000e+00 0.000000e+00
1
Step 574000
Ar 1.112741e+00 0.000000e+00 0.000000e+00
1
Step 575000
Ar 1.089248e+00 0.000000e+00 0.000000e+00
1
Step 576000
Ar 1.131539e+00 0.000000e+00 0.000000e+00
1
Step 577000
Ar 1.025320e+00 0.000000e+00 0.000000e+00
1
Step 578000
Ar 1.095531e+00 0.000000e+00 0.000000e+00
1
Step 579000
Ar 3.585738e-01 0.000000e+00 0.000000e+00
1
Step 580000
Ar 3.684633e-01 0.000000e+00 0.000000e+00
1
Step 581000
Ar 3.515779e-01 0.000000e+00 0.000000e+00
1
Step 582000
Ar 3.073903e-01 0.000000e+00 0.000000e+00
1
Step 583000
Ar 2.557693e-01 0.000000e+00 0.000000e+00
1
Step 584000
Ar 2.822822e-01 0.000000e+00 0.000000e+00
1
Step 585000
Ar 2.992025e-01 0.000000e+00 0.000000e+00
1
Step 586000
Ar 4.959455e-01 0.000000e+00 0.000000e+00
1
Step 587000
Ar 4.633088e-01 0.000000e+00 0.000000e+00
1
Step 588000
Ar 5.587689e-01 0.000000e+00 0.000000e+00
1
Step 589000
Ar 5.985388e-01 0.000000e+00 0.000000e+00
1
Step 590000
Ar 6.198434e-01 0.000000e+00 0.000000e+00
1
Step 591000
Ar 6.173535e-01 0.000000e+00 0.000000e+00
1
Step 592000
Ar 1.052996e+00 0.000000e+00 0.000000e+00
1
Step 593000
Ar 1.342030e+00 0.000000e+00 0.000000e+00
1
Step 594000
Ar 1.395452e+00 0.000000e+00 0.000000e+00
1
Step 595000
Ar 1.386509e+00 0.000000e+00 0.000000e+00
1
Step 596000
Ar 1.410068e+00 0.000000e+00 0.000000e+00
1
Step 597000
Ar 1.425422e+00 0.000000e+00 0.000000e+00
1
Step 598000
Ar 1.404028e+00 0.000000e+00 0.000000e+00
1
Step 599000
Ar 1.333096e+00 0.000000e+00 0.000000e+00
1
Step 600000
Ar 1.319669e+00 0.000000e+00 0.000000e+00
1
Step 601000
Ar 1.285864e+00 0.000000e+00 0.000000e+00
1
Step 602000
Ar 1.337647e+00 0.000000e+00 0.000000e+00
1
Step 603000
Ar 1.434291e+00 0.000000e+00 0.000000e+00
1
Step 604000
Ar 1.263863e+00 0.000000e+00 0.000000e+00
1
Step 605000
Ar 1.273717e+00 0.000000e+00 0.000000e+00
1
Step 606000
Ar 1.188554e+00 0.000000e+00 0.000000e+00
1
Step 607000
Ar 1.183577e+00 0.000000e+00 0.000000e+00
1
Step 608000
Ar 1.253223e+00 0.000000e+00 0.000000e+00
1
Step 609000
Ar 1.209660e+00 0.000000e+00 0.000000e+00
1
Step 610000
Ar 1.151600e+00 0.000000e+00 0.000000e+00
1
Step 611000
Ar 1.165285e+00 0.000000e+00 0.000000e+00
1
Step 612000
Ar 1.153769e+00 0.000000e+00 0.000000e+00
1
Step 613000
Ar 1.466339e+00 0.000000e+00 0.000000e+00
1
Step 614000
Ar 1.444336e+00 0.000000e+00 0.000000e+00
1
Step 615000
Ar 1.370542e+00 0.000000e+00 0.000000e+00
1
Step 616000
Ar 1.309821e+00 0.000000e+00 0.000000e+00
1
Step 617000
Ar 1.457671e+00 0.000000e+00 0.000000e+00
1
Step 618000
Ar 1.213333e+00 0.000000e+00 0.000000e+00
1
Step 619000
Ar 1.487825e+00 0.000000e+00 0.000000e+00
1
Step 620000
Ar 1.418011e+00 0.000000e+00 0.000000e+00
1
Step 621000
Ar 1.287866e+00 0.000000e+00 0.000000e+00
1
Step 622000
Ar 1.258393e+00 0.000000e+00 0.000000e+00
1
Step 623000
Ar 1.324137e+00 0.000000e+00 0.000000e+00
1
Step 624000
Ar 1.297449e+00 0.000000e+00 0.000000e+00
1
Step 625000
Ar 1.230848e+00 0.000000e+00 0.000000e+00
1
Step 626000
Ar 1.350067e+00 0.000000e+00 0.000000e+00
1
Step 627000
Ar 1.495566e+00 0.000000e+00 0.000000e+00
1
Step 628000
Ar 1.264987e+00 0.000000e+00 0.000000e+00
1
Step 629000
Ar 1.195194e+00 0.000000e+00 0.000000e+00
1
Step 630000
Ar 1.243407e+00 0.000000e+00 0.000000e+00
1
Step 631000
Ar 1.247246e+00 0.000000e+00 0.000000e+00
1
Step 632000
Ar 1.383362e+00 0.000000e+00 0.000000e+00
1
Step 633000
Ar 1.437303e+00 0.000000e+00 0.000000e+00
1
Step 634000
Ar 1.361723e+00 0.000000e+00 0.000000e+00
1
Step 635000
Ar 1.397858e+00 0.000000e+00 0.000000e+00
1
Step 636000
Ar 1.409091e+00 0.000000e+00 0.000000e+00
1
Step 637000
Ar 1.279113e+00 0.000000e+00 0.000000e+00
1
Step 638000
Ar 1.370042e+00 0.000000e+00 0.000000e+00
1
Step 639000
Ar 1.326822e+00 0.000000e+00 0.000000e+00
1
Step 640000
Ar 8.211346e-01 0.000000e+00 0.000000e+00
1
Step 641000
Ar 8.866955e-01 0.000000e+00 0.000000e+00
1
Step 642000
Ar 1.070610e+00 0.000000e+00 0.000000e+00
1
Step 643000
Ar 8.932417e-01 0.000000e+00 0.000000e+00
1
Step 644000
Ar 9.370767e-01 0.000000e+00 0.000000e+00
1
Step 645000
Ar 9.351627e-01 0.000000e+00 0.000000e+00
1
Step 646000
Ar 9.245787e-01 0.000000e+00 0.000000e+00
1
Step 647000
Ar 7.328134e-01 0.000000e+00 0.000000e+00
1
Step 648000
Ar 7.382885e-01 0.000000e+00 0.000000e+00
1
Step 649000
Ar 7.158291e-01 0.000000e+00 0.000000e+00
1
Step 650000
Ar 8.804410e-01 0.000000e+00 0.000000e+00
1