1
Step 120000
Ar 8.714521e-01 0.000000e+00 0.000000e+00
1
Step 121000
Ar 9.228213e-01 0.000000e+00 0.000000e+00
1
Step 122000
Ar 1.079571e+00 0.000000e+00 0.000000e+00
1
Step 123000
Ar 1.192002e+00 0.000000e+00 0.000000e+00
1
Step 124000
Ar 8.032418e-01 0.000000e+00 0.000000e+00
1
Step 125000
Ar 1.072263e+00 0.000000e+00 0.000000e+00
1
Step 126000
Ar 9.843214e-01 0.000000e+00 0.000000e+00
1
Step 127000
Ar 8.280594e-01 0.000000e+00 0.000000e+00
1
Step 128000
Ar 9.165177e-01 0.000000e+00 0.000000e+00
1
Step 129000
Ar 9.783931e-01 0.000000e+00 0.000000e+00
1
Step 130000
Ar 8.320152e-01 0.000000e+00 0.000000e+00
1
Step 131000
Ar 7.250719e-01 0.000000e+00 0.000000e+00
1
Step 132000
Ar 7.832503e-01 0.000000e+00 0.000000e+00
1
Step 133000
Ar 7.975044e-01 0.000000e+00 0.000000e+00
1
Step 134000
Ar 7.968489e-01 0.000000e+00 0.000000e+00
1
Step 135000
Ar 7.837712e-01 0.000000e+00 0.000000e+00
1
Step 136000
Ar 9.510279e-01 0.000000e+00 0.000000e+00
1
Step 137000
Ar 9.054081e-01 0.000000e+00 0.000000e+00
1
Step 138000
Ar 8.579938e-01 0.000000e+00 0.000000e+00
1
Step 139000
Ar 9.090239e-01 0.000000e+00 0.000000e+00
1
Step 140000
Ar 1.025096e+00 0.000000e+00 0.000000e+00
1
Step 141000
Ar 1.050733e+00 0.000000e+00 0.000000e+00
1
Step 142000
Ar 1.051839e+00 0.000000e+00 0.000000e+00
1
Step 143000
Ar 1.044037e+00 0.000000e+00 0.000000e+00
1
Step 144000
Ar 1.038380e+00 0.000000e+00 0.000000e+00
1
Step 145000
Ar 1.044656e+00 0.000000e+00 0.000000e+00
1
Step 146000
Ar 1.060503e+00 0.000000e+00 0.000000e+00
1
Step 147000
Ar 1.058824e+00 0.000000e+00 0.000000e+00
1
Step 148000
Ar 1.061967e+00 0.000000e+00 0.000000e+00
1
Step 149000
Ar 1.056705e+00 0.000000e+00 0.000000e+00
1
Step 150000
Ar 1.062243e+00 0.000000e+00 0.000000e+00
1
Step 151000
Ar 9.164714e-01 0.000000e+00 0.000000e+00
1
Step 152000
Ar 9.974183e-01 0.000000e+00 0.000000e+00
1
Step 153000
Ar 9.590751e-01 0.000000e+00 0.000000e+00
1
Step 154000
Ar 9.009791e-01 0.000000e+00 0.000000e+00
1
Step 155000
Ar 9.837483e-01 0.000000e+00 0.000000e+00
1
Step 156000
Ar 9.513523e-01 0.000000e+00 0.000000e+00
1
Step 157000
Ar 9.002036e-01 0.000000e+00 0.000000e+00
1
Step 158000
Ar 9.026538e-01 0.000000e+00 0.000000e+00
1
Step 159000
Ar 8.645776e-01 0.000000e+00 0.000000e+00
1
Step 160000
Ar 9.162312e-01 0.000000e+00 0.000000e+00
1
Step 161000
Ar 8.577755e-01 0.000000e+00 0.000000e+00
1
Step 162000
Ar 8.772752e-01 0.000000e+00 0.000000e+00
1
Step 163000
Ar 8.588087e-01 0.000000e+00 0.000000e+00
1
Step 164000
Ar 8.398993e-01 0.000000e+00 0.000000e+00
1
Step 165000
Ar 8.914882e-01 0.000000e+00 0.000000e+00
1
Step 166000
Ar 1.136426e+00 0.000000e+00 0.000000e+00
1
Step 167000
Ar 1.085142e+00 0.000000e+00 0.000000e+00
1
Step 168000
Ar 1.097473e+00 0.000000e+00 0.000000e+00
1
Step 169000
Ar 1.102242e+00 0.000000e+00 0.000000e+00
1
Step 170000
Ar 1.239875e+00 0.000000e+00 0.000000e+00
1
Step 171000
Ar 1.267103e+00 0.000000e+00 0.000000e+00
1
Step 172000
Ar 1.339931e+00 0.000000e+00 0.000000e+00
1
Step 173000
Ar 1.263078e+00 0.000000e+00 0.000000e+00
1
Step 174000
Ar 1.275911e+00 0.000000e+00 0.000000e+00
1
Step 175000
Ar 1.311890e+00 0.000000e+00 0.000000e+00
1
Step 176000
Ar 1.350157e+00 0.000000e+00 0.000000e+00
1
Step 177000
Ar 1.345471e+00 0.000000e+00 0.000000e+00
1
Step 178000
Ar 1.329992e+00 0.000000e+00 0.000000e+00
1
Step 179000
Ar 1.332005e+00 0.000000e+00 0.000000e+00
1
Step 180000
Ar 1.327916e+00 0.000000e+00 0.000000e+00
1
Step 181000
Ar 1.346987e+00 0.000000e+00 0.000000e+00
1
Step 182000
Ar 1.421068e+00 0.000000e+00 0.000000e+00
1
Step 183000
Ar 1.338132e+00 0.000000e+00 0.000000e+00
1
Step 184000
Ar 1.351433e+00 0.000000e+00 0.000000e+00
1
Step 185000
Ar 1.348832e+00 0.000000e+00 0.000000e+00
1
Step 186000
Ar 1.159279e+00 0.000000e+00 0.000000e+00
1
Step 187000
Ar 1.125149e+00 0.000000e+00 0.000000e+00
1
Step 188000
Ar 1.154899e+00 0.000000e+00 0.000000e+00
1
Step 189000
Ar 1.101174e+00 0.000000e+00 0.000000e+00
1
Step 190000
Ar 1.112382e+00 0.000000e+00 0.000000e+00
1
Step 191000
Ar 1.205531e+00 0.000000e+00 0.000000e+00
1
Step 192000
Ar 1.187982e+00 0.000000e+00 0.000000e+00
1
Step 193000
Ar 1.154807e+00 0.000000e+00 0.000000e+00
1
Step 194000
Ar 1.202261e+00 0.000000e+00 0.000000e+00
1
Step 195000
Ar 1.206637e+00 0.000000e+00 0.000000e+00
1
Step 196000
Ar 1.224799e+00 0.000000e+00 0.000000e+00
1
Step 197000
Ar 1.221858e+00 0.000000e+00 0.000000e+00
1
Step 198000
Ar 1.221067e+00 0.000000e+00 0.000000e+00
1
Step 199000
Ar 1.225190e+00 0.000000e+00 0.000000e+00
1
Step 200000
Ar 1.218059e+00 0.000000e+00 0.000000e+00
1
Step 201000
Ar 1.130712e+00 0.000000e+00 0.000000e+00
1
Step 202000
Ar 1.133595e+00 0.000000e+00 0.000000e+00
1
Step 203000
Ar 1.156065e+00 0.000000e+00 0.000000e+00
1
Step 204000
Ar 1.180867e+00 0.000000e+00 0.000000e+00
1
Step 205000
Ar 1.184341e+00 0.000000e+00 0.000000e+00
1
Step 206000
Ar 1.130994e+00 0.000000e+00 0.000000e+00
1
Step 207000
Ar 1.146271e+00 0.000000e+00 0.000000e+00
1
Step 208000
Ar 1.143607e+00 0.000000e+00 0.000000e+00
1
Step 209000
Ar 1.142965e+00 0.000000e+00 0.000000e+00
1
Step 210000
Ar 1.162649e+00 0.000000e+00 0.000000e+00
1
Step 211000
Ar 1.127662e+00 0.000000e+00 0.000000e+00
1
Step 212000
Ar 1.126024e+00 0.000000e+00 0.000000e+00
1
Step 213000
Ar 1.148945e+00 0.000000e+00 0.000000e+00
1
Step 214000
Ar 1.150334e+00 0.000000e+00 0.000000e+00
1
Step 215000
Ar 1.133201e+00 0.000000e+00 0.000000e+00
1
Step 216000
Ar 1.255501e+00 0.000000e+00 0.000000e+00
1
Step 217000
Ar 1.262665e+00 0.000000e+00 0.000000e+00
1
Step 218000
Ar 1.284235e+00 0.000000e+00 0.000000e+00
1
Step 219000
Ar 1.253622e+00 0.000000e+00 0.000000e+00
1
Step 220000
Ar 1.293006e+00 0.000000e+00 0.000000e+00
1
Step 221000
Ar 9.607013e-01 0.000000e+00 0.000000e+00
1
Step 222000
Ar 9.398826e-01 0.000000e+00 0.000000e+00
1
Step 223000
Ar 9.654544e-01 0.000000e+00 0.000000e+00
1
Step 224000
Ar 9.326888e-01 0.000000e+00 0.000000e+00
1
Step 225000
Ar 9.636061e-01 0.000000e+00 0.000000e+00
1
Step 226000
Ar 1.390193e+00 0.000000e+00 0.000000e+00
1
Step 227000
Ar 1.396389e+00 0.000000e+00 0.000000e+00
1
Step 228000
Ar 1.391363e+00 0.000000e+00 0.000000e+00
1
Step 229000
Ar 1.363500e+00 0.000000e+00 0.000000e+00
1
Step 230000
Ar 1.383460e+00 0.000000e+00 0.000000e+00
1
Step 231000
Ar 1.360085e+00 0.000000e+00 0.000000e+00
1
Step 232000
Ar 1.364544e+00 0.000000e+00 0.000000e+00
1
Step 233000
Ar 1.368246e+00 0.000000e+00 0.000000e+00
1
Step 234000
Ar 1.363604e+00 0.000000e+00 0.000000e+00
1
Step 235000
Ar 1.368970e+00 0.000000e+00 0.000000e+00
1
Step 236000
Ar 1.086970e+00 0.000000e+00 0.000000e+00
1
Step 237000
Ar 1.092843e+00 0.000000e+00 0.000000e+00
1
Step 238000
Ar 1.089445e+00 0.000000e+00 0.000000e+00
1
Step 239000
Ar 1.097148e+00 0.000000e+00 0.000000e+00
1
Step 240000
Ar 1.088066e+00 0.000000e+00 0.000000e+00
1
Step 241000
Ar 1.096389e+00 0.000000e+00 0.000000e+00
1
Step 242000
Ar 1.099150e+00 0.000000e+00 0.000000e+00
1
Step 243000
Ar 1.102994e+00 0.000000e+00 0.000000e+00
1
Step 244000
Ar 1.097255e+00 0.000000e+00 0.000000e+00
1
Step 245000
Ar 1.099480e+00 0.000000e+00 0.000000e+00
1
Step 246000
Ar 8.779128e-01 0.000000e+00 0.000000e+00
1
Step 247000
Ar 8.559909e-01 0.000000e+00 0.000000e+00
1
Step 248000
Ar 8.612969e-01 0.000000e+00 0.000000e+00
1
Step 249000
Ar 8.639784e-01 0.000000e+00 0.000000e+00
1
Step 250000
Ar 8.441778e-01 0.000000e+00 0.000000e+00
1
Step 251000
Ar 7.451345e-01 0.000000e+00 0.000000e+00
1
Step 252000
Ar 7.511401e-01 0.000000e+00 0.000000e+00
1
Step 253000
Ar 7.598975e-01 0.000000e+00 0.000000e+00
1
Step 254000
Ar 7.681489e-01 0.000000e+00 0.000000e+00
1
Step 255000
Ar 7.312666e-01 0.000000e+00 0.000000e+00
1
Step 256000
Ar 6.009716e-01 0.000000e+00 0.000000e+00
1
Step 257000
Ar 7.007304e-01 0.000000e+00 0.000000e+00
1
Step 258000
Ar 6.824343e-01 0.000000e+00 0.000000e+00
1
Step 259000
Ar 6.056170e-01 0.000000e+00 0.000000e+00
1
Step 260000
Ar 4.996003e-01 0.000000e+00 0.000000e+00
1
Step 261000
Ar 6.444677e-01 0.000000e+00 0.000000e+00
1
Step 262000
Ar 6.029002e-01 0.000000e+00 0.000000e+00
1
Step 263000
Ar 6.723085e-01 0.000000e+00 0.000000e+00
1
Step 264000
Ar 6.900967e-01 0.000000e+00 0.000000e+00
1
Step 265000
Ar 6.730273e-01 0.000000e+00 0.000000e+00
1
Step 266000
Ar 6.934023e-01 0.000000e+00 0.000000e+00
1
Step 267000
Ar 7.139045e-01 0.000000e+00 0.000000e+00
1
Step 268000
Ar 6.975835e-01 0.000000e+00 0.000000e+00
1
Step 269000
Ar 6.864907e-01 0.000000e+00 0.000000e+00
1
Step 270000
Ar 6.960132e-01 0.000000e+00 0.000000e+00
1
Step 271000
Ar 7.115887e-01 0.000000e+00 0.000000e+00
1
Step 272000
Ar 7.199746e-01 0.000000e+00 0.000000e+00
1
Step 273000
Ar 7.125451e-01 0.000000e+00 0.000000e+00
1
Step 274000
Ar 7.110913e-01 0.000000e+00 0.000000e+00
1
Step 275000
Ar 7.232067e-01 0.000000e+00 0.000000e+00
1
Step 276000
Ar 7.103830e-01 0.000000e+00 0.000000e+00
1
Step 277000
Ar 7.094150e-01 0.000000e+00 0.000000e+00
1
Step 278000
Ar 7.103734e-01 0.000000e+00 0.000000e+00
1
Step 279000
Ar 7.083886e-01 0.000000e+00 0.000000e+00
1
Step 280000
Ar 7.092647e-01 0.000000e+00 0.000000e+00
1
Step 281000
Ar 5.137700e-01 0.000000e+00 0.000000e+00
1
Step 282000
Ar 6.625154e-01 0.000000e+00 0.000000e+00
1
Step 283000
Ar 6.233351e-01 0.000000e+00 0.000000e+00
1
Step 284000
Ar 6.087734e-01 0.000000e+00 0.000000e+00
1
Step 285000
Ar 5.400621e-01 0.000000e+00 0.000000e+00
1
Step 286000
Ar 6.568866e-01 0.000000e+00 0.000000e+00
1
Step 287000
Ar 6.549589e-01 0.000000e+00 0.000000e+00
1
Step 288000
Ar 6.495824e-01 0.000000e+00 0.000000e+00
1
Step 289000
Ar 6.321862e-01 0.000000e+00 0.000000e+00
1
Step 290000
Ar 6.401617e-01 0.000000e+00 0.000000e+00
1
Step 291000
Ar 6.600981e-01 0.000000e+00 0.000000e+00
1
Step 292000
Ar 6.536805e-01 0.000000e+00 0.000000e+00
1
Step 293000
Ar 6.584298e-01 0.000000e+00 0.000000e+00
1
Step 294000
Ar 6.545829e-01 0.000000e+00 0.000000e+00
1
Step 295000
Ar 6.477285e-01 0.000000e+00 0.000000e+00
1
Step 296000
Ar 6.861970e-01 0.000000e+00 0.000000e+00
1
Step 297000
Ar 6.834608e-01 0.000000e+00 0.000000e+00
1
Step 298000
Ar 6.823320e-01 0.000000e+00 0.000000e+00
1
Step 299000
Ar 6.867653e-01 0.000000e+00 0.000000e+00
1
Step 300000
Ar 6.865487e-01 0.000000e+00 0.000000e+00
1
Step 301000
Ar 6.603356e-01 0.000000e+00 0.000000e+00
1
Step 302000
Ar 6.612636e-01 0.000000e+00 0.000000e+00
1
Step 303000
Ar 6.629745e-01 0.000000e+00 0.000000e+00
1
Step 304000
Ar 6.616877e-01 0.000000e+00 0.000000e+00
1
Step 305000
Ar 6.562760e-01 0.000000e+00 0.000000e+00
1
Step 306000
Ar 8.811367e-01 0.000000e+00 0.000000e+00
1
Step 307000
Ar 8.708654e-01 0.000000e+00 0.000000e+00
1
Step 308000
Ar 8.655348e-01 0.000000e+00 0.000000e+00
1
Step 309000
Ar 8.657312e-01 0.000000e+00 0.000000e+00
1
Step 310000
Ar 8.712647e-01 0.000000e+00 0.000000e+00
1
Step 311000
Ar 8.543968e-01 0.000000e+00 0.000000e+00
1
Step 312000
Ar 8.611514e-01 0.000000e+00 0.000000e+00
1
Step 313000
Ar 8.551161e-01 0.000000e+00 0.000000e+00
1
Step 314000
Ar 8.553330e-01 0.000000e+00 0.000000e+00
1
Step 315000
Ar 8.604037e-01 0.000000e+00 0.000000e+00
1
Step 316000
Ar 8.020513e-01 0.000000e+00 0.000000e+00
1
Step 317000
Ar 8.027782e-01 0.000000e+00 0.000000e+00
1
Step 318000
Ar 7.997356e-01 0.000000e+00 0.000000e+00
1
Step 319000
Ar 8.180698e-01 0.000000e+00 0.000000e+00
1
Step 320000
Ar 8.143118e-01 0.000000e+00 0.000000e+00
1
Step 321000
Ar 8.038746e-01 0.000000e+00 0.000000e+00
1
Step 322000
Ar 8.011794e-01 0.000000e+00 0.000000e+00
1
Step 323000
Ar 8.054352e-01 0.000000e+00 0.000000e+00
1
Step 324000
Ar 7.978468e-01 0.000000e+00 0.000000e+00
1
Step 325000
Ar 8.010046e-01 0.000000e+00 0.000000e+00
1
Step 326000
Ar 9.983399e-01 0.000000e+00 0.000000e+00
1
Step 327000
Ar 1.000191e+00 0.000000e+00 0.000000e+00
1
Step 328000
Ar 1.006788e+00 0.000000e+00 0.000000e+00
1
Step 329000
Ar 1.012994e+00 0.000000e+00 0.000000e+00
1
Step 330000
Ar 1.004125e+00 0.000000e+00 0.000000e+00
1
Step 331000
Ar 9.314017e-01 0.000000e+00 0.000000e+00
1
Step 332000
Ar 9.274598e-01 0.000000e+00 0.000000e+00
1
Step 333000
Ar 9.435533e-01 0.000000e+00 0.000000e+00
1
Step 334000
Ar 9.497762e-01 0.000000e+00 0.000000e+00
1
Step 335000
Ar 9.508086e-01 0.000000e+00 0.000000e+00
1
Step 336000
Ar 9.037643e-01 0.000000e+00 0.000000e+00
1
Step 337000
Ar 9.033894e-01 0.000000e+00 0.000000e+00
1
Step 338000
Ar 9.014368e-01 0.000000e+00 0.000000e+00
1
Step 339000
Ar 9.053808e-01 0.000000e+00 0.000000e+00
1
Step 340000
Ar 9.026585e-01 0.000000e+00 0.000000e+00
1
Step 341000
Ar 9.317172e-01 0.000000e+00 0.000000e+00
1
Step 342000
Ar 9.338042e-01 0.000000e+00 0.000000e+00
1
Step 343000
Ar 9.412128e-01 0.000000e+00 0.000000e+00
1
Step 344000
Ar 9.393724e-01 0.000000e+00 0.000000e+00
1
Step 345000
Ar 9.374248e-01 0.000000e+00 0.000000e+00
1
Step 346000
Ar 7.528204e-01 0.000000e+00 0.000000e+00
1
Step 347000
Ar 7.619144e-01 0.000000e+00 0.000000e+00
1
Step 348000
Ar 7.704677e-01 0.000000e+00 0.000000e+00
1
Step 349000
Ar 7.475941e-01 0.000000e+00 0.000000e+00
1
Step 350000
Ar 7.542347e-01 0.000000e+00 0.000000e+00
1
Step 351000
Ar 7.653653e-01 0.000000e+00 0.000000e+00
1
Step 352000
Ar 7.682246e-01 0.000000e+00 0.000000e+00
1
Step 353000
Ar 7.700652e-01 0.000000e+00 0.000000e+00
1
Step 354000
Ar 7.617997e-01 0.000000e+00 0.000000e+00
1
Step 355000
Ar 7.687826e-01 0.000000e+00 0.000000e+00
1
Step 356000
Ar 7.414921e-01 0.000000e+00 0.000000e+00
1
Step 357000
Ar 7.438603e-01 0.000000e+00 0.000000e+00
1
Step 358000
Ar 7.427977e-01 0.000000e+00 0.000000e+00
1
Step 359000
Ar 7.436874e-01 0.000000e+00 0.000000e+00
1
Step 360000
Ar 7.423309e-01 0.000000e+00 0.000000e+00
1
Step 361000
Ar 9.921165e-01 0.000000e+00 0.000000e+00
1
Step 362000
Ar 9.958768e-01 0.000000e+00 0.000000e+00
1
Step 363000
Ar 9.925991e-01 0.000000e+00 0.000000e+00
1
Step 364000
Ar 1.056897e+00 0.000000e+00 0.000000e+00
1
Step 365000
Ar 1.020772e+00 0.000000e+00 0.000000e+00
1
Step 366000
Ar 8.504474e-01 0.000000e+00 0.000000e+00
1
Step 367000
Ar 7.641898e-01 0.000000e+00 0.000000e+00
1
Step 368000
Ar 8.829074e-01 0.000000e+00 0.000000e+00
1
Step 369000
Ar 8.774909e-01 0.000000e+00 0.000000e+00
1
Step 370000
Ar 8.794755e-01 0.000000e+00 0.000000e+00
1
Step 371000
Ar 9.255458e-01 0.000000e+00 0.000000e+00
1
Step 372000
Ar 9.275637e-01 0.000000e+00 0.000000e+00
1
Step 373000
Ar 9.283493e-01 0.000000e+00 0.000000e+00
1
Step 374000
Ar 9.273860e-01 0.000000e+00 0.000000e+00
1
Step 375000
Ar 9.279413e-01 0.000000e+00 0.000000e+00
1
Step 376000
Ar 6.170044e-01 0.000000e+00 0.000000e+00
1
Step 377000
Ar 6.079280e-01 0.000000e+00 0.000000e+00
1
Step 378000
Ar 5.911913e-01 0.000000e+00 0.000000e+00
1
Step 379000
Ar 5.656624e-01 0.000000e+00 0.000000e+00
1
Step 380000
Ar 6.182915e-01 0.000000e+00 0.000000e+00
1
Step 381000
Ar 5.641589e-01 0.000000e+00 0.000000e+00
1
Step 382000
Ar 5.946705e-01 0.000000e+00 0.000000e+00
1
Step 383000
Ar 5.807685e-01 0.000000e+00 0.000000e+00
1
Step 384000
Ar 5.967284e-01 0.000000e+00 0.000000e+00
1
Step 385000
Ar 5.879719e-01 0.000000e+00 0.000000e+00
1
Step 386000
Ar 5.662044e-01 0.000000e+00 0.000000e+00
1
Step 387000
Ar 5.562719e-01 0.000000e+00 0.000000e+00
1
Step 388000
Ar 5.679309e-01 0.000000e+00 0.000000e+00
1
Step 389000
Ar 5.670275e-01 0.000000e+00 0.000000e+00
1
Step 390000
Ar 5.716331e-01 0.000000e+00 0.000000e+00
1
Step 391000
Ar 6.323712e-01 0.000000e+00 0.000000e+00
1
Step 392000
Ar 6.300796e-01 0.000000e+00 0.000000e+00
1
Step 393000
Ar 6.259015e-01 0.000000e+00 0.000000e+00
1
Step 394000
Ar 6.320903e-01 0.000000e+00 0.000000e+00
1
Step 395000
Ar 6.323284e-01 0.000000e+00 0.000000e+00
1
Step 396000
Ar 4.811980e-01 0.000000e+00 0.000000e+00
1
Step 397000
Ar 4.522261e-01 0.000000e+00 0.000000e+00
1
Step 398000
Ar 4.489551e-01 0.000000e+00 0.000000e+00
1
Step 399000
Ar 3.587703e-01 0.000000e+00 0.000000e+00
1
Step 400000
Ar 4.755006e-01 0.000000e+00 0.000000e+00
1
Step 401000
Ar 6.056294e-01 0.000000e+00 0.000000e+00
1
Step 402000
Ar 6.078928e-01 0.000000e+00 0.000000e+00
1
Step 403000
Ar 6.024542e-01 0.000000e+00 0.000000e+00
1
Step 404000
Ar 6.004716e-01 0.000000e+00 0.000000e+00
1
Step 405000
Ar 6.014849e-01 0.000000e+00 0.000000e+00
1
Step 406000
Ar 5.544517e-01 0.000000e+00 0.000000e+00
1
Step 407000
Ar 5.631664e-01 0.000000e+00 0.000000e+00
1
Step 408000
Ar 5.535200e-01 0.000000e+00 0.000000e+00
1
Step 409000
Ar 5.529604e-01 0.000000e+00 0.000000e+00
1
Step 410000
Ar 5.596396e-01 0.000000e+00 0.000000e+00
1
Step 411000
Ar 5.518902e-01 0.000000e+00 0.000000e+00
1
Step 412000
Ar 5.120901e-01 0.000000e+00 0.000000e+00
1
Step 413000
Ar 5.129884e-01 0.000000e+00 0.000000e+00
1
Step 414000
Ar 5.215077e-01 0.000000e+00 0.000000e+00
1
Step 415000
Ar 5.245807e-01 0.000000e+00 0.000000e+00
1
Step 416000
Ar 6.087771e-01 0.000000e+00 0.000000e+00
1
Step 417000
Ar 6.101276e-01 0.000000e+00 0.000000e+00
1
Step 418000
Ar 4.816624e-02 0.000000e+00 0.000000e+00
1
Step 419000
Ar -9.866371e-01 0.000000e+00 0.000000e+00
1
Step 420000
Ar -1.048645e+00 0.000000e+00 0.000000e+00
1
Step 421000
Ar -1.122745e+00 0.000000e+00 0.000000e+00
1
Step 422000
Ar -1.189834e+00 0.000000e+00 0.000000e+00
1
Step 423000
Ar -1.221792e+00 0.000000e+00 0.000000e+00
1
Step 424000
Ar -1.124314e+00 0.000000e+00 0.000000e+00
1
Step 425000
Ar -1.167835e+00 0.000000e+00 0.000000e+00
1
Step 426000
Ar -1.095132e+00 0.000000e+00 0.000000e+00
1
Step 427000
Ar -1.133538e+00 0.000000e+00 0.000000e+00
1
Step 428000
Ar -1.146549e+00 0.000000e+00 0.000000e+00
1
Step 429000
Ar -1.080299e+00 0.000000e+00 0.000000e+00
1
Step 430000
Ar -1.126652e+00 0.000000e+00 0.000000e+00
1
Step 431000
Ar -8.533847e-01 0.000000e+00 0.000000e+00
1
Step 432000
Ar -1.000142e+00 0.000000e+00 0.000000e+00
1
Step 433000
Ar -7.879302e-01 0.000000e+00 0.000000e+00
1
Step 434000
Ar -8.651281e-01 0.000000e+00 0.000000e+00
1
Step 435000
Ar -9.532098e-01 0.000000e+00 0.000000e+00
1
Step 436000
Ar -8.240771e-01 0.000000e+00 0.000000e+00
1
Step 437000
Ar -8.318879e-01 0.000000e+00 0.000000e+00
1
Step 438000
Ar -8.913662e-01 0.000000e+00 0.000000e+00
1
Step 439000
Ar -8.818586e-01 0.000000e+00 0.000000e+00
1
Step 440000
Ar -8.896183e-01 0.000000e+00 0.000000e+00
1
Step 441000
Ar -9.450707e-01 0.000000e+00 0.000000e+00
1
Step 442000
Ar -8.996194e-01 0.000000e+00 0.000000e+00
1
Step 443000
Ar -9.279676e-01 0.000000e+00 0.000000e+00
1
Step 444000
Ar -9.087703e-01 0.000000e+00 0.000000e+00
1
Step 445000
Ar -9.169903e-01 0.000000e+00 0.000000e+00
1
Step 446000
Ar -9.277195e-01 0.000000e+00 0.000000e+00
1
Step 447000
Ar -9.325294e-01 0.000000e+00 0.000000e+00
1
Step 448000
Ar -9.340741e-01 0.000000e+00 0.000000e+00
1
Step 449000
Ar -9.354481e-01 0.000000e+00 0.000000e+00
1
Step 450000
Ar -9.291194e-01 0.000000e+00 0.000000e+00
1
Step 451000
Ar -8.344554e-01 0.000000e+00 0.000000e+00
1
Step 452000
Ar -8.668093e-01 0.000000e+00 0.000000e+00
1
Step 453000
Ar -7.503772e-01 0.000000e+00 0.000000e+00
1
Step 454000
Ar -8.544497e-01 0.000000e+00 0.000000e+00
1
Step 455000
Ar -7.966787e-01 0.000000e+00 0.000000e+00
1
Step 456000
Ar -9.808822e-01 0.000000e+00 0.000000e+00
1
Step 457000
Ar -9.717833e-01 0.000000e+00 0.000000e+00
1
Step 458000
Ar -9.911593e-01 0.000000e+00 0.000000e+00
1
Step 459000
Ar -1.016662e+00 0.000000e+00 0.000000e+00
1
Step 460000
Ar -9.984316e-01 0.000000e+00 0.000000e+00
1
Step 461000
Ar -9.640055e-01 0.000000e+00 0.000000e+00
1
Step 462000
Ar -9.807374e-01 0.000000e+00 0.000000e+00
1
Step 463000
Ar -9.732357e-01 0.000000e+00 0.000000e+00
1
Step 464000
Ar -9.825048e-01 0.000000e+00 0.000000e+00
1
Step 465000
Ar -9.700671e-01 0.000000e+00 0.000000e+00
1
Step 466000
Ar -8.150300e-01 0.000000e+00 0.000000e+00
1
Step 467000
Ar -8.409797e-01 0.000000e+00 0.000000e+00
1
Step 468000
Ar -8.335012e-01 0.000000e+00 0.000000e+00
1
Step 469000
Ar -8.362682e-01 0.000000e+00 0.000000e+00
1
Step 470000
Ar -8.633811e-01 0.000000e+00 0.000000e+00
1
Step 471000
Ar -8.732169e-01 0.000000e+00 0.000000e+00
1
Step 472000
Ar -8.741652e-01 0.000000e+00 0.000000e+00
1
Step 473000
Ar -8.764194e-01 0.000000e+00 0.000000e+00
1
Step 474000
Ar -8.765721e-01 0.000000e+00 0.000000e+00
1
Step 475000
Ar -8.789549e-01 0.000000e+00 0.000000e+00
1
Step 476000
Ar -8.431254e-01 0.000000e+00 0.000000e+00
1
Step 477000
Ar -8.158560e-01 0.000000e+00 0.000000e+00
1
Step 478000
Ar -8.208793e-01 0.000000e+00 0.000000e+00
1
Step 479000
Ar -8.411881e-01 0.000000e+00 0.000000e+00
1
Step 480000
Ar -8.285260e-01 0.000000e+00 0.000000e+00
1
Step 481000
Ar -8.414287e-01 0.000000e+00 0.000000e+00
1
Step 482000
Ar -8.524457e-01 0.000000e+00 0.000000e+00
1
Step 483000
Ar -8.502791e-01 0.000000e+00 0.000000e+00
1
Step 484000
Ar -8.461782e-01 0.000000e+00 0.000000e+00
1
Step 485000
Ar -8.405021e-01 0.000000e+00 0.000000e+00
1
Step 486000
Ar -8.530925e-01 0.000000e+00 0.000000e+00
1
Step 487000
Ar -8.529004e-01 0.000000e+00 0.000000e+00
1
Step 488000
Ar -8.479412e-01 0.000000e+00 0.000000e+00
1
Step 489000
Ar -8.567897e-01 0.000000e+00 0.000000e+00
1
Step 490000
Ar -8.526458e-01 0.000000e+00 0.000000e+00
1
Step 491000
Ar -1.200798e+00 0.000000e+00 0.000000e+00
1
Step 492000
Ar -1.193640e+00 0.000000e+00 0.000000e+00
1
Step 493000
Ar -1.202797e+00 0.000000e+00 0.000000e+00
1
Step 494000
Ar -1.211064e+00 0.000000e+00 0.000000e+00
1
Step 495000
Ar -1.230392e+00 0.000000e+00 0.000000e+00
1
Step 496000
Ar -1.184712e+00 0.000000e+00 0.000000e+00
1
Step 497000
Ar -1.188781e+00 0.000000e+00 0.000000e+00
1
Step 498000
Ar -1.208146e+00 0.000000e+00 0.000000e+00
1
Step 499000
Ar -1.181429e+00 0.000000e+00 0.000000e+00
1
Step 500000
Ar -1.184169e+00 0.000000e+00 0.000000e+00
1
Step 501000
Ar -1.108497e+00 0.000000e+00 0.000000e+00
1
Step 502000
Ar -1.096678e+00 0.000000e+00 0.000000e+00
1
Step 503000
Ar -1.085493e+00 0.000000e+00 0.000000e+00
1
Step 504000
Ar -1.062377e+00 0.000000e+00 0.000000e+00
1
Step 505000
Ar -1.085861e+00 0.000000e+00 0.000000e+00
1
Step 506000
Ar -7.791510e-01 0.000000e+00 0.000000e+00
1
Step 507000
Ar -7.828525e-01 0.000000e+00 0.000000e+00
1
Step 508000
Ar -7.324273e-01 0.000000e+00 0.000000e+00
1
Step 509000
Ar -7.820960e-01 0.000000e+00 0.000000e+00
1
Step 510000
Ar -7.735276e-01 0.000000e+00 0.000000e+00
1
Step 511000
Ar -8.045315e-01 0.000000e+00 0.000000e+00
1
Step 512000
Ar -8.157058e-01 0.000000e+00 0.000000e+00
1
Step 513000
Ar -8.116710e-01 0.000000e+00 0.000000e+00
1
Step 514000
Ar -8.092162e-01 0.000000e+00 0.000000e+00
1
Step 515000
Ar -8.120654e-01 0.000000e+00 0.000000e+00
1
Step 516000
Ar -7.591252e-01 0.000000e+00 0.000000e+00
1
Step 517000
Ar -6.269614e-01 0.000000e+00 0.000000e+00
1
Step 518000
Ar -7.272264e-01 0.000000e+00 0.000000e+00
1
Step 519000
Ar -5.897536e-01 0.000000e+00 0.000000e+00
1
Step 520000
Ar -6.599408e-01 0.000000e+00 0.000000e+00
1
Step 521000
Ar -7.583759e-01 0.000000e+00 0.000000e+00
1
Step 522000
Ar -7.412039e-01 0.000000e+00 0.000000e+00
1
Step 523000
Ar -7.557648e-01 0.000000e+00 0.000000e+00
1
Step 524000
Ar -6.885514e-01 0.000000e+00 0.000000e+00
1
Step 525000
Ar -6.779837e-01 0.000000e+00 0.000000e+00
1
Step 526000
Ar -1.015388e+00 0.000000e+00 0.000000e+00
1
Step 527000
Ar -1.031673e+00 0.000000e+00 0.000000e+00
1
Step 528000
Ar -1.029569e+00 0.000000e+00 0.000000e+00
1
Step 529000
Ar -1.015143e+00 0.000000e+00 0.000000e+00
1
Step 530000
Ar -1.029048e+00 0.000000e+00 0.000000e+00
1
Step 531000
Ar -1.075582e+00 0.000000e+00 0.000000e+00
1
Step 532000
Ar -1.061815e+00 0.000000e+00 0.000000e+00
1
Step 533000
Ar -1.067372e+00 0.000000e+00 0.000000e+00
1
Step 534000
Ar -1.060580e+00 0.000000e+00 0.000000e+00
1
Step 535000
Ar -1.060126e+00 0.000000e+00 0.000000e+00
1
Step 536000
Ar -1.074624e+00 0.000000e+00 0.000000e+00
1
Step 537000
Ar -1.075733e+00 0.000000e+00 0.000000e+00
1
Step 538000
Ar -1.074787e+00 0.000000e+00 0.000000e+00
1
Step 539000
Ar -1.068649e+00 0.000000e+00 0.000000e+00
1
Step 540000
Ar -1.073842e+00 0.000000e+00 0.000000e+00
1
Step 541000
Ar -1.109824e+00 0.000000e+00 0.000000e+00
1
Step 542000
Ar -1.102455e+00 0.000000e+00 0.000000e+00
1
Step 543000
Ar -1.104666e+00 0.000000e+00 0.000000e+00
1
Step 544000
Ar -1.106155e+00 0.000000e+00 0.000000e+00
1
Step 545000
Ar -1.104765e+00 0.000000e+00 0.000000e+00
1
Step 546000
Ar -1.146711e+00 0.000000e+00 0.000000e+00
1
Step 547000
Ar -1.146098e+00 0.000000e+00 0.000000e+00
1
Step 548000
Ar -1.145062e+00 0.000000e+00 0.000000e+00
1
Step 549000
Ar -1.155463e+00 0.000000e+00 0.000000e+00
1
Step 550000
Ar -1.156924e+00 0.000000e+00 0.000000e+00
1
Step 551000
Ar -9.863825e-01 0.000000e+00 0.000000e+00
1
Step 552000
Ar -9.843477e-01 0.000000e+00 0.000000e+00
1
Step 553000
Ar -9.853710e-01 0.000000e+00 0.000000e+00
1
Step 554000
Ar -9.832543e-01 0.000000e+00 0.000000e+00
1
Step 555000
Ar -9.870316e-01 0.000000e+00 0.000000e+00
1
Step 556000
Ar -5.522468e-01 0.000000e+00 0.000000e+00
1
Step 557000
Ar -6.484760e-01 0.000000e+00 0.000000e+00
1
Step 558000
Ar -6.364720e-01 0.000000e+00 0.000000e+00
1
Step 559000
Ar -5.581339e-01 0.000000e+00 0.000000e+00
1
Step 560000
Ar -5.779837e-01 0.000000e+00 0.000000e+00
1
Step 561000
Ar -6.410915e-01 0.000000e+00 0.000000e+00
1
Step 562000
Ar -6.170152e-01 0.000000e+00 0.000000e+00
1
Step 563000
Ar -6.401481e-01 0.000000e+00 0.000000e+00
1
Step 564000
Ar -6.151731e-01 0.000000e+00 0.000000e+00
1
Step 565000
Ar -6.197466e-01 0.000000e+00 0.000000e+00
1
Step 566000
Ar -7.575052e-01 0.000000e+00 0.000000e+00
1
Step 567000
Ar -7.057575e-01 0.000000e+00 0.000000e+00
1
Step 568000
Ar -7.453486e-01 0.000000e+00 0.000000e+00
1
Step 569000
Ar -7.305407e-01 0.000000e+00 0.000000e+00
1
Step 570000
Ar -7.464891e-01 0.000000e+00 0.000000e+00
1
Step 571000
Ar -7.301310e-01 0.000000e+00 0.000000e+00
1
Step 572000
Ar -7.054014e-01 0.000000e+00 0.000000e+00
1
Step 573000
Ar -6.877403e-01 0.000000e+00 0.000000e+00
1
Step 574000
Ar -7.131389e-01 0.000000e+00 0.000000e+00
1
Step 575000
Ar -7.326332e-01 0.000000e+00 0.000000e+00
1
Step 576000
Ar -7.053443e-01 0.000000e+00 0.000000e+00
1
Step 577000
Ar -7.047244e-01 0.000000e+00 0.000000e+00
1
Step 578000
Ar -6.944082e-01 0.000000e+00 0.000000e+00
1
Step 579000
Ar -7.031176e-01 0.000000e+00 0.000000e+00
1
Step 580000
Ar -7.180567e-01 0.000000e+00 0.000000e+00
1
Step 581000
Ar -6.426885e-01 0.000000e+00 0.000000e+00
1
Step 582000
Ar -6.394522e-01 0.000000e+00 0.000000e+00
1
Step 583000
Ar -6.437257e-01 0.000000e+00 0.000000e+00
1
Step 584000
Ar -6.351365e-01 0.000000e+00 0.000000e+00
1
Step 585000
Ar -6.351702e-01 0.000000e+00 0.000000e+00
1
Step 586000
Ar -7.617092e-01 0.000000e+00 0.000000e+00
1
Step 587000
Ar -7.566813e-01 0.000000e+00 0.000000e+00
1
Step 588000
Ar -7.579892e-01 0.000000e+00 0.000000e+00
1
Step 589000
Ar -7.603753e-01 0.000000e+00 0.000000e+00
1
Step 590000
Ar -7.603424e-01 0.000000e+00 0.000000e+00
1
Step 591000
Ar -1.015168e+00 0.000000e+00 0.000000e+00
1
Step 592000
Ar -1.017646e+00 0.000000e+00 0.000000e+00
1
Step 593000
Ar -1.012086e+00 0.000000e+00 0.000000e+00
1
Step 594000
Ar -1.010553e+00 0.000000e+00 0.000000e+00
1
Step 595000
Ar -1.008293e+00 0.000000e+00 0.000000e+00
1
Step 596000
Ar -1.114241e+00 0.000000e+00 0.000000e+00
1
Step 597000
Ar -1.119537e+00 0.000000e+00 0.000000e+00
1
Step 598000
Ar -1.116027e+00 0.000000e+00 0.000000e+00
1
Step 599000
Ar -1.113723e+00 0.000000e+00 0.000000e+00
1
Step 600000
Ar -1.114820e+00 0.000000e+00 0.000000e+00
1
Step 601000
Ar -5.913619e-01 0.000000e+00 0.000000e+00
1
Step 602000
Ar -5.995508e-01 0.000000e+00 0.000000e+00
1
Step 603000
Ar -5.991135e-01 0.000000e+00 0.000000e+00
1
Step 604000
Ar -6.045657e-01 0.000000e+00 0.000000e+00
1
Step 605000
Ar -6.026296e-01 0.000000e+00 0.000000e+00
1
Step 606000
Ar 4.545190e-01 0.000000e+00 0.000000e+00
1
Step 607000
Ar 4.445571e-01 0.000000e+00 0.000000e+00
1
Step 608000
Ar 4.359989e-01 0.000000e+00 0.000000e+00
1
Step 609000
Ar 4.395369e-01 0.000000e+00 0.000000e+00
1
Step 610000
Ar 3.198433e-01 0.000000e+00 0.000000e+00
1
Step 611000
Ar 7.802759e-02 0.000000e+00 0.000000e+00
1
Step 612000
Ar -4.123553e-01 0.000000e+00 0.000000e+00
1
Step 613000
Ar -5.254093e-01 0.000000e+00 0.000000e+00
1
Step 614000
Ar -4.580438e-01 0.000000e+00 0.000000e+00
1
Step 615000
Ar -3.595544e-01 0.000000e+00 0.000000e+00
1
Step 616000
Ar 2.568439e-01 0.000000e+00 0.000000e+00
1
Step 617000
Ar -2.574227e-01 0.000000e+00 0.000000e+00
1
Step 618000
Ar -1.031711e-01 0.000000e+00 0.000000e+00
1
Step 619000
Ar -2.750396e-01 0.000000e+00 0.000000e+00
1
Step 620000
Ar 5.568878e-02 0.000000e+00 0.000000e+00
1
Step 621000
Ar 1.381761e-01 0.000000e+00 0.000000e+00
1
Step 622000
Ar 1.600661e-01 0.000000e+00 0.000000e+00
1
Step 623000
Ar 2.873047e-01 0.000000e+00 0.000000e+00
1
Step 624000
Ar 9.662446e-02 0.000000e+00 0.000000e+00
1
Step 625000
Ar 1.994378e-01 0.000000e+00 0.000000e+00
1
Step 626000
Ar 6.092926e-01 0.000000e+00 0.000000e+00
1
Step 627000
Ar 5.548534e-01 0.000000e+00 0.000000e+00
1
Step 628000
Ar 5.481565e-01 0.000000e+00 0.000000e+00
1
Step 629000
Ar 4.885081e-01 0.000000e+00 0.000000e+00
1
Step 630000
Ar 4.844324e-01 0.000000e+00 0.000000e+00
1
Step 631000
Ar 4.552216e-01 0.000000e+00 0.000000e+00
1
Step 632000
Ar 4.560122e-01 0.000000e+00 0.000000e+00
1
Step 633000
Ar 3.874553e-01 0.000000e+00 0.000000e+00
1
Step 634000
Ar 4.431694e-01 0.000000e+00 0.000000e+00
1
Step 635000
Ar 3.448320e-01 0.000000e+00 0.000000e+00
1
Step 636000
Ar 3.338304e-01 0.000000e+00 0.000000e+00
1
Step 637000
Ar 3.333246e-01 0.000000e+00 0.000000e+00
1
Step 638000
Ar 3.316769e-01 0.000000e+00 0.000000e+00
1
Step 639000
Ar 3.332908e-01 0.000000e+00 0.000000e+00
1
Step 640000
Ar 3.311532e-01 0.000000e+00 0.000000e+00
1
Step 641000
Ar 3.824693e-01 0.000000e+00 0.000000e+00
1
Step 642000
Ar 4.400599e-01 0.000000e+00 0.000000e+00
1
Step 643000
Ar 4.356571e-01 0.000000e+00 0.000000e+00
1
Step 644000
Ar 3.708927e-01 0.000000e+00 0.000000e+00
1
Step 645000
Ar 3.966102e-01 0.000000e+00 0.000000e+00
1
Step 646000
Ar 4.299234e-01 0.000000e+00 0.000000e+00
1
Step 647000
Ar 4.207468e-01 0.000000e+00 0.000000e+00
1
Step 648000
Ar 4.643521e-01 0.000000e+00 0.000000e+00
1
Step 649000
Ar 4.182005e-01 0.000000e+00 0.000000e+00
1
Step 650000
Ar 4.405872e-01 0.000000e+00 0.000000e+00
1
Step 651000
Ar 4.174079e-01 0.000000e+00 0.000000e+00
1
Step 652000