1
Step 120000
Ar 9.640590e-01 0.000000e+00 0.000000e+00
1
Step 121000
Ar 1.130912e+00 0.000000e+00 0.000000e+00
1
Step 122000
Ar 1.145354e+00 0.000000e+00 0.000000e+00
1
Step 123000
Ar 1.022585e+00 0.000000e+00 0.000000e+00
1
Step 124000
Ar 1.152960e+00 0.000000e+00 0.000000e+00
1
Step 125000
Ar 9.931478e-01 0.000000e+00 0.000000e+00
1
Step 126000
Ar 8.520682e-01 0.000000e+00 0.000000e+00
1
Step 127000
Ar 8.995826e-01 0.000000e+00 0.000000e+00
1
Step 128000
Ar 8.220738e-01 0.000000e+00 0.000000e+00
1
Step 129000
Ar 9.720159e-01 0.000000e+00 0.000000e+00
1
Step 130000
Ar 9.155483e-01 0.000000e+00 0.000000e+00
1
Step 131000
Ar 7.878165e-01 0.000000e+00 0.000000e+00
1
Step 132000
Ar 8.490964e-01 0.000000e+00 0.000000e+00
1
Step 133000
Ar 7.767837e-01 0.000000e+00 0.000000e+00
1
Step 134000
Ar 7.201673e-01 0.000000e+00 0.000000e+00
1
Step 135000
Ar 8.911704e-01 0.000000e+00 0.000000e+00
1
Step 136000
Ar 4.896125e-01 0.000000e+00 0.000000e+00
1
Step 137000
Ar 8.261556e-01 0.000000e+00 0.000000e+00
1
Step 138000
Ar 7.129561e-01 0.000000e+00 0.000000e+00
1
Step 139000
Ar 8.322087e-01 0.000000e+00 0.000000e+00
1
Step 140000
Ar 7.082031e-01 0.000000e+00 0.000000e+00
1
Step 141000
Ar 8.358992e-01 0.000000e+00 0.000000e+00
1
Step 142000
Ar 8.558626e-01 0.000000e+00 0.000000e+00
1
Step 143000
Ar 8.631390e-01 0.000000e+00 0.000000e+00
1
Step 144000
Ar 7.674955e-01 0.000000e+00 0.000000e+00
1
Step 145000
Ar 7.816579e-01 0.000000e+00 0.000000e+00
1
Step 146000
Ar 8.753063e-01 0.000000e+00 0.000000e+00
1
Step 147000
Ar 8.648322e-01 0.000000e+00 0.000000e+00
1
Step 148000
Ar 8.000069e-01 0.000000e+00 0.000000e+00
1
Step 149000
Ar 8.041848e-01 0.000000e+00 0.000000e+00
1
Step 150000
Ar 8.736244e-01 0.000000e+00 0.000000e+00
1
Step 151000
Ar 9.572523e-01 0.000000e+00 0.000000e+00
1
Step 152000
Ar 9.487956e-01 0.000000e+00 0.000000e+00
1
Step 153000
Ar 9.726970e-01 0.000000e+00 0.000000e+00
1
Step 154000
Ar 9.797293e-01 0.000000e+00 0.000000e+00
1
Step 155000
Ar 9.706147e-01 0.000000e+00 0.000000e+00
1
Step 156000
Ar 1.132757e+00 0.000000e+00 0.000000e+00
1
Step 157000
Ar 1.114362e+00 0.000000e+00 0.000000e+00
1
Step 158000
Ar 1.053895e+00 0.000000e+00 0.000000e+00
1
Step 159000
Ar 1.144704e+00 0.000000e+00 0.000000e+00
1
Step 160000
Ar 1.060503e+00 0.000000e+00 0.000000e+00
1
Step 161000
Ar 1.037283e+00 0.000000e+00 0.000000e+00
1
Step 162000
Ar 1.013764e+00 0.000000e+00 0.000000e+00
1
Step 163000
Ar 1.018459e+00 0.000000e+00 0.000000e+00
1
Step 164000
Ar 1.038860e+00 0.000000e+00 0.000000e+00
1
Step 165000
Ar 1.033112e+00 0.000000e+00 0.000000e+00
1
Step 166000
Ar 1.013411e+00 0.000000e+00 0.000000e+00
1
Step 167000
Ar 1.018046e+00 0.000000e+00 0.000000e+00
1
Step 168000
Ar 1.016166e+00 0.000000e+00 0.000000e+00
1
Step 169000
Ar 1.015909e+00 0.000000e+00 0.000000e+00
1
Step 170000
Ar 1.008972e+00 0.000000e+00 0.000000e+00
1
Step 171000
Ar 9.390495e-01 0.000000e+00 0.000000e+00
1
Step 172000
Ar 9.462149e-01 0.000000e+00 0.000000e+00
1
Step 173000
Ar 9.569639e-01 0.000000e+00 0.000000e+00
1
Step 174000
Ar 9.316446e-01 0.000000e+00 0.000000e+00
1
Step 175000
Ar 9.433993e-01 0.000000e+00 0.000000e+00
1
Step 176000
Ar 9.279040e-01 0.000000e+00 0.000000e+00
1
Step 177000
Ar 9.344923e-01 0.000000e+00 0.000000e+00
1
Step 178000
Ar 9.276190e-01 0.000000e+00 0.000000e+00
1
Step 179000
Ar 9.325115e-01 0.000000e+00 0.000000e+00
1
Step 180000
Ar 9.286614e-01 0.000000e+00 0.000000e+00
1
Step 181000
Ar 1.137860e+00 0.000000e+00 0.000000e+00
1
Step 182000
Ar 1.099325e+00 0.000000e+00 0.000000e+00
1
Step 183000
Ar 1.077046e+00 0.000000e+00 0.000000e+00
1
Step 184000
Ar 1.158041e+00 0.000000e+00 0.000000e+00
1
Step 185000
Ar 1.126347e+00 0.000000e+00 0.000000e+00
1
Step 186000
Ar 1.227539e+00 0.000000e+00 0.000000e+00
1
Step 187000
Ar 1.182134e+00 0.000000e+00 0.000000e+00
1
Step 188000
Ar 1.224530e+00 0.000000e+00 0.000000e+00
1
Step 189000
Ar 1.218993e+00 0.000000e+00 0.000000e+00
1
Step 190000
Ar 1.142578e+00 0.000000e+00 0.000000e+00
1
Step 191000
Ar 1.223511e+00 0.000000e+00 0.000000e+00
1
Step 192000
Ar 1.185702e+00 0.000000e+00 0.000000e+00
1
Step 193000
Ar 1.180047e+00 0.000000e+00 0.000000e+00
1
Step 194000
Ar 1.181690e+00 0.000000e+00 0.000000e+00
1
Step 195000
Ar 1.232601e+00 0.000000e+00 0.000000e+00
1
Step 196000
Ar 1.213664e+00 0.000000e+00 0.000000e+00
1
Step 197000
Ar 1.158528e+00 0.000000e+00 0.000000e+00
1
Step 198000
Ar 1.217409e+00 0.000000e+00 0.000000e+00
1
Step 199000
Ar 1.183727e+00 0.000000e+00 0.000000e+00
1
Step 200000
Ar 1.180125e+00 0.000000e+00 0.000000e+00
1
Step 201000
Ar 1.088509e+00 0.000000e+00 0.000000e+00
1
Step 202000
Ar 1.080062e+00 0.000000e+00 0.000000e+00
1
Step 203000
Ar 1.092354e+00 0.000000e+00 0.000000e+00
1
Step 204000
Ar 1.083822e+00 0.000000e+00 0.000000e+00
1
Step 205000
Ar 1.092440e+00 0.000000e+00 0.000000e+00
1
Step 206000
Ar 9.542771e-01 0.000000e+00 0.000000e+00
1
Step 207000
Ar 9.576675e-01 0.000000e+00 0.000000e+00
1
Step 208000
Ar 9.563495e-01 0.000000e+00 0.000000e+00
1
Step 209000
Ar 9.534683e-01 0.000000e+00 0.000000e+00
1
Step 210000
Ar 9.582491e-01 0.000000e+00 0.000000e+00
1
Step 211000
Ar 9.021255e-01 0.000000e+00 0.000000e+00
1
Step 212000
Ar 9.034035e-01 0.000000e+00 0.000000e+00
1
Step 213000
Ar 9.002649e-01 0.000000e+00 0.000000e+00
1
Step 214000
Ar 9.078673e-01 0.000000e+00 0.000000e+00
1
Step 215000
Ar 9.022805e-01 0.000000e+00 0.000000e+00
1
Step 216000
Ar 7.589980e-01 0.000000e+00 0.000000e+00
1
Step 217000
Ar 7.289998e-01 0.000000e+00 0.000000e+00
1
Step 218000
Ar 7.319354e-01 0.000000e+00 0.000000e+00
1
Step 219000
Ar 7.476678e-01 0.000000e+00 0.000000e+00
1
Step 220000
Ar 7.650710e-01 0.000000e+00 0.000000e+00
1
Step 221000
Ar 6.101122e-01 0.000000e+00 0.000000e+00
1
Step 222000
Ar 6.878657e-01 0.000000e+00 0.000000e+00
1
Step 223000
Ar 6.751320e-01 0.000000e+00 0.000000e+00
1
Step 224000
Ar 6.946601e-01 0.000000e+00 0.000000e+00
1
Step 225000
Ar 6.574631e-01 0.000000e+00 0.000000e+00
1
Step 226000
Ar 7.487930e-01 0.000000e+00 0.000000e+00
1
Step 227000
Ar 7.509347e-01 0.000000e+00 0.000000e+00
1
Step 228000
Ar 7.439809e-01 0.000000e+00 0.000000e+00
1
Step 229000
Ar 7.386596e-01 0.000000e+00 0.000000e+00
1
Step 230000
Ar 7.515867e-01 0.000000e+00 0.000000e+00
1
Step 231000
Ar 6.792833e-01 0.000000e+00 0.000000e+00
1
Step 232000
Ar 6.898329e-01 0.000000e+00 0.000000e+00
1
Step 233000
Ar 6.922302e-01 0.000000e+00 0.000000e+00
1
Step 234000
Ar 6.794543e-01 0.000000e+00 0.000000e+00
1
Step 235000
Ar 6.805869e-01 0.000000e+00 0.000000e+00
1
Step 236000
Ar 6.937317e-01 0.000000e+00 0.000000e+00
1
Step 237000
Ar 6.935000e-01 0.000000e+00 0.000000e+00
1
Step 238000
Ar 6.943908e-01 0.000000e+00 0.000000e+00
1
Step 239000
Ar 6.939031e-01 0.000000e+00 0.000000e+00
1
Step 240000
Ar 6.918613e-01 0.000000e+00 0.000000e+00
1
Step 241000
Ar 7.277165e-01 0.000000e+00 0.000000e+00
1
Step 242000
Ar 7.285361e-01 0.000000e+00 0.000000e+00
1
Step 243000
Ar 7.356343e-01 0.000000e+00 0.000000e+00
1
Step 244000
Ar 7.271827e-01 0.000000e+00 0.000000e+00
1
Step 245000
Ar 7.209468e-01 0.000000e+00 0.000000e+00
1
Step 246000
Ar 7.367512e-01 0.000000e+00 0.000000e+00
1
Step 247000
Ar 7.408699e-01 0.000000e+00 0.000000e+00
1
Step 248000
Ar 7.355141e-01 0.000000e+00 0.000000e+00
1
Step 249000
Ar 7.312664e-01 0.000000e+00 0.000000e+00
1
Step 250000
Ar 7.411932e-01 0.000000e+00 0.000000e+00
1
Step 251000
Ar 1.048905e+00 0.000000e+00 0.000000e+00
1
Step 252000
Ar 1.044468e+00 0.000000e+00 0.000000e+00
1
Step 253000
Ar 1.046558e+00 0.000000e+00 0.000000e+00
1
Step 254000
Ar 1.048426e+00 0.000000e+00 0.000000e+00
1
Step 255000
Ar 1.048716e+00 0.000000e+00 0.000000e+00
1
Step 256000
Ar 6.262224e-01 0.000000e+00 0.000000e+00
1
Step 257000
Ar 6.130793e-01 0.000000e+00 0.000000e+00
1
Step 258000
Ar 6.428561e-01 0.000000e+00 0.000000e+00
1
Step 259000
Ar 5.304672e-01 0.000000e+00 0.000000e+00
1
Step 260000
Ar 5.786793e-01 0.000000e+00 0.000000e+00
1
Step 261000
Ar 5.491305e-01 0.000000e+00 0.000000e+00
1
Step 262000
Ar 4.644998e-01 0.000000e+00 0.000000e+00
1
Step 263000
Ar 5.404174e-01 0.000000e+00 0.000000e+00
1
Step 264000
Ar 4.859108e-01 0.000000e+00 0.000000e+00
1
Step 265000
Ar 5.596231e-01 0.000000e+00 0.000000e+00
1
Step 266000
Ar 4.166196e-01 0.000000e+00 0.000000e+00
1
Step 267000
Ar 4.922385e-01 0.000000e+00 0.000000e+00
1
Step 268000
Ar 5.041873e-01 0.000000e+00 0.000000e+00
1
Step 269000
Ar 3.548540e-01 0.000000e+00 0.000000e+00
1
Step 270000
Ar 5.359680e-01 0.000000e+00 0.000000e+00
1
Step 271000
Ar -9.315296e-01 0.000000e+00 0.000000e+00
1
Step 272000
Ar -1.144214e+00 0.000000e+00 0.000000e+00
1
Step 273000
Ar -1.189048e+00 0.000000e+00 0.000000e+00
1
Step 274000
Ar -1.116317e+00 0.000000e+00 0.000000e+00
1
Step 275000
Ar -9.653133e-01 0.000000e+00 0.000000e+00
1
Step 276000
Ar -1.132432e+00 0.000000e+00 0.000000e+00
1
Step 277000
Ar -1.052717e+00 0.000000e+00 0.000000e+00
1
Step 278000
Ar -1.147943e+00 0.000000e+00 0.000000e+00
1
Step 279000
Ar -1.216804e+00 0.000000e+00 0.000000e+00
1
Step 280000
Ar -1.054684e+00 0.000000e+00 0.000000e+00
1
Step 281000
Ar -9.968282e-01 0.000000e+00 0.000000e+00
1
Step 282000
Ar -9.971513e-01 0.000000e+00 0.000000e+00
1
Step 283000
Ar -1.016788e+00 0.000000e+00 0.000000e+00
1
Step 284000
Ar -1.042105e+00 0.000000e+00 0.000000e+00
1
Step 285000
Ar -9.999386e-01 0.000000e+00 0.000000e+00
1
Step 286000
Ar -1.135869e+00 0.000000e+00 0.000000e+00
1
Step 287000
Ar -1.075374e+00 0.000000e+00 0.000000e+00
1
Step 288000
Ar -1.214431e+00 0.000000e+00 0.000000e+00
1
Step 289000
Ar -1.290874e+00 0.000000e+00 0.000000e+00
1
Step 290000
Ar -1.073700e+00 0.000000e+00 0.000000e+00
1
Step 291000
Ar -1.141753e+00 0.000000e+00 0.000000e+00
1
Step 292000
Ar -1.106508e+00 0.000000e+00 0.000000e+00
1
Step 293000
Ar -1.174180e+00 0.000000e+00 0.000000e+00
1
Step 294000
Ar -1.120953e+00 0.000000e+00 0.000000e+00
1
Step 295000
Ar -1.237614e+00 0.000000e+00 0.000000e+00
1
Step 296000
Ar -1.177134e+00 0.000000e+00 0.000000e+00
1
Step 297000
Ar -1.084218e+00 0.000000e+00 0.000000e+00
1
Step 298000
Ar -1.109087e+00 0.000000e+00 0.000000e+00
1
Step 299000
Ar -1.085324e+00 0.000000e+00 0.000000e+00
1
Step 300000
Ar -1.168486e+00 0.000000e+00 0.000000e+00
1
Step 301000
Ar -1.138578e+00 0.000000e+00 0.000000e+00
1
Step 302000
Ar -1.100761e+00 0.000000e+00 0.000000e+00
1
Step 303000
Ar -1.114067e+00 0.000000e+00 0.000000e+00
1
Step 304000
Ar -1.098603e+00 0.000000e+00 0.000000e+00
1
Step 305000
Ar -1.153484e+00 0.000000e+00 0.000000e+00
1
Step 306000
Ar -1.022471e+00 0.000000e+00 0.000000e+00
1
Step 307000
Ar -1.016476e+00 0.000000e+00 0.000000e+00
1
Step 308000
Ar -1.029398e+00 0.000000e+00 0.000000e+00
1
Step 309000
Ar -1.026211e+00 0.000000e+00 0.000000e+00
1
Step 310000
Ar -1.039437e+00 0.000000e+00 0.000000e+00
1
Step 311000
Ar -1.019747e+00 0.000000e+00 0.000000e+00
1
Step 312000
Ar -1.010800e+00 0.000000e+00 0.000000e+00
1
Step 313000
Ar -1.022961e+00 0.000000e+00 0.000000e+00
1
Step 314000
Ar -1.023301e+00 0.000000e+00 0.000000e+00
1
Step 315000
Ar -1.020185e+00 0.000000e+00 0.000000e+00
1
Step 316000
Ar -1.097050e+00 0.000000e+00 0.000000e+00
1
Step 317000
Ar -1.096797e+00 0.000000e+00 0.000000e+00
1
Step 318000
Ar -1.098716e+00 0.000000e+00 0.000000e+00
1
Step 319000
Ar -1.110045e+00 0.000000e+00 0.000000e+00
1
Step 320000
Ar -1.109971e+00 0.000000e+00 0.000000e+00
1
Step 321000
Ar -1.084369e+00 0.000000e+00 0.000000e+00
1
Step 322000
Ar -1.096628e+00 0.000000e+00 0.000000e+00
1
Step 323000
Ar -1.099709e+00 0.000000e+00 0.000000e+00
1
Step 324000
Ar -1.097904e+00 0.000000e+00 0.000000e+00
1
Step 325000
Ar -1.092579e+00 0.000000e+00 0.000000e+00
1
Step 326000
Ar -1.276541e+00 0.000000e+00 0.000000e+00
1
Step 327000
Ar -1.269283e+00 0.000000e+00 0.000000e+00
1
Step 328000
Ar -1.280574e+00 0.000000e+00 0.000000e+00
1
Step 329000
Ar -1.285240e+00 0.000000e+00 0.000000e+00
1
Step 330000
Ar -1.275532e+00 0.000000e+00 0.000000e+00
1
Step 331000
Ar -1.189304e+00 0.000000e+00 0.000000e+00
1
Step 332000
Ar -1.220912e+00 0.000000e+00 0.000000e+00
1
Step 333000
Ar -1.187956e+00 0.000000e+00 0.000000e+00
1
Step 334000
Ar -1.180227e+00 0.000000e+00 0.000000e+00
1
Step 335000
Ar -1.182510e+00 0.000000e+00 0.000000e+00
1
Step 336000
Ar -1.211031e+00 0.000000e+00 0.000000e+00
1
Step 337000
Ar -1.200221e+00 0.000000e+00 0.000000e+00
1
Step 338000
Ar -1.205485e+00 0.000000e+00 0.000000e+00
1
Step 339000
Ar -1.194379e+00 0.000000e+00 0.000000e+00
1
Step 340000
Ar -1.223963e+00 0.000000e+00 0.000000e+00
1
Step 341000
Ar -1.208960e+00 0.000000e+00 0.000000e+00
1
Step 342000
Ar -1.193464e+00 0.000000e+00 0.000000e+00
1
Step 343000
Ar -1.212193e+00 0.000000e+00 0.000000e+00
1
Step 344000
Ar -1.198933e+00 0.000000e+00 0.000000e+00
1
Step 345000
Ar -1.205534e+00 0.000000e+00 0.000000e+00
1
Step 346000
Ar -9.386600e-01 0.000000e+00 0.000000e+00
1
Step 347000
Ar -8.931709e-01 0.000000e+00 0.000000e+00
1
Step 348000
Ar -9.247255e-01 0.000000e+00 0.000000e+00
1
Step 349000
Ar -8.902962e-01 0.000000e+00 0.000000e+00
1
Step 350000
Ar -7.025811e-01 0.000000e+00 0.000000e+00
1
Step 351000
Ar -6.186522e-01 0.000000e+00 0.000000e+00
1
Step 352000
Ar -5.533951e-01 0.000000e+00 0.000000e+00
1
Step 353000
Ar -6.174414e-01 0.000000e+00 0.000000e+00
1
Step 354000
Ar -6.736206e-01 0.000000e+00 0.000000e+00
1
Step 355000
Ar -4.043823e-01 0.000000e+00 0.000000e+00
1
Step 356000
Ar -3.694028e-01 0.000000e+00 0.000000e+00
1
Step 357000
Ar -3.478690e-01 0.000000e+00 0.000000e+00
1
Step 358000
Ar -3.942120e-01 0.000000e+00 0.000000e+00
1
Step 359000
Ar -3.411723e-01 0.000000e+00 0.000000e+00
1
Step 360000
Ar -3.735875e-01 0.000000e+00 0.000000e+00
1
Step 361000
Ar -3.520792e-01 0.000000e+00 0.000000e+00
1
Step 362000
Ar 4.753440e-01 0.000000e+00 0.000000e+00
1
Step 363000
Ar 5.173383e-01 0.000000e+00 0.000000e+00
1
Step 364000
Ar 4.665791e-01 0.000000e+00 0.000000e+00
1
Step 365000
Ar -1.638595e-01 0.000000e+00 0.000000e+00
1
Step 366000
Ar 4.994513e-01 0.000000e+00 0.000000e+00
1
Step 367000
Ar 3.773376e-01 0.000000e+00 0.000000e+00
1
Step 368000
Ar 5.026982e-01 0.000000e+00 0.000000e+00
1
Step 369000
Ar 5.033990e-01 0.000000e+00 0.000000e+00
1
Step 370000
Ar 1.652271e-01 0.000000e+00 0.000000e+00
1
Step 371000
Ar -2.441594e-02 0.000000e+00 0.000000e+00
1
Step 372000
Ar -4.679012e-02 0.000000e+00 0.000000e+00
1
Step 373000
Ar 1.201781e-01 0.000000e+00 0.000000e+00
1
Step 374000
Ar -1.092709e-01 0.000000e+00 0.000000e+00
1
Step 375000
Ar -4.909382e-03 0.000000e+00 0.000000e+00
1
Step 376000
Ar -3.233892e-02 0.000000e+00 0.000000e+00
1
Step 377000
Ar -1.213093e-01 0.000000e+00 0.000000e+00
1
Step 378000
Ar -3.797429e-02 0.000000e+00 0.000000e+00
1
Step 379000
Ar -1.455541e-01 0.000000e+00 0.000000e+00
1
Step 380000
Ar -1.391179e-01 0.000000e+00 0.000000e+00
1
Step 381000
Ar -8.876467e-02 0.000000e+00 0.000000e+00
1
Step 382000
Ar -6.335851e-02 0.000000e+00 0.000000e+00
1
Step 383000
Ar -8.238587e-02 0.000000e+00 0.000000e+00
1
Step 384000
Ar -1.903587e-02 0.000000e+00 0.000000e+00
1
Step 385000
Ar -2.260937e-02 0.000000e+00 0.000000e+00
1
Step 386000
Ar -9.390470e-02 0.000000e+00 0.000000e+00
1
Step 387000
Ar -3.875165e-02 0.000000e+00 0.000000e+00
1
Step 388000
Ar -7.017486e-02 0.000000e+00 0.000000e+00
1
Step 389000
Ar -7.470480e-02 0.000000e+00 0.000000e+00
1
Step 390000
Ar -8.975400e-02 0.000000e+00 0.000000e+00
1
Step 391000
Ar -7.712895e-02 0.000000e+00 0.000000e+00
1
Step 392000
Ar -4.982982e-02 0.000000e+00 0.000000e+00
1
Step 393000
Ar -4.961662e-02 0.000000e+00 0.000000e+00
1
Step 394000
Ar -7.370532e-02 0.000000e+00 0.000000e+00
1
Step 395000
Ar -5.733488e-02 0.000000e+00 0.000000e+00
1
Step 396000
Ar -3.823725e-02 0.000000e+00 0.000000e+00
1
Step 397000
Ar -3.546982e-02 0.000000e+00 0.000000e+00
1
Step 398000
Ar -3.940069e-02 0.000000e+00 0.000000e+00
1
Step 399000
Ar -3.672303e-02 0.000000e+00 0.000000e+00
1
Step 400000
Ar -3.413504e-02 0.000000e+00 0.000000e+00
1
Step 401000
Ar -4.718779e-02 0.000000e+00 0.000000e+00
1
Step 402000
Ar -4.357955e-02 0.000000e+00 0.000000e+00
1
Step 403000
Ar -4.256761e-02 0.000000e+00 0.000000e+00
1
Step 404000
Ar -4.700173e-02 0.000000e+00 0.000000e+00
1
Step 405000
Ar -4.556059e-02 0.000000e+00 0.000000e+00
1
Step 406000
Ar -1.204502e-01 0.000000e+00 0.000000e+00
1
Step 407000
Ar -1.147960e-01 0.000000e+00 0.000000e+00
1
Step 408000
Ar -1.109863e-01 0.000000e+00 0.000000e+00
1
Step 409000
Ar -1.115280e-01 0.000000e+00 0.000000e+00
1
Step 410000
Ar -1.087525e-01 0.000000e+00 0.000000e+00
1
Step 411000
Ar -1.233140e-01 0.000000e+00 0.000000e+00
1
Step 412000
Ar -1.293811e-01 0.000000e+00 0.000000e+00
1
Step 413000
Ar -1.203574e-01 0.000000e+00 0.000000e+00
1
Step 414000
Ar -1.264899e-01 0.000000e+00 0.000000e+00
1
Step 415000
Ar -1.216513e-01 0.000000e+00 0.000000e+00
1
Step 416000
Ar -3.137831e-01 0.000000e+00 0.000000e+00
1
Step 417000
Ar -2.447864e-01 0.000000e+00 0.000000e+00
1
Step 418000
Ar -3.308515e-01 0.000000e+00 0.000000e+00
1
Step 419000
Ar -3.492132e-01 0.000000e+00 0.000000e+00
1
Step 420000
Ar -2.792226e-01 0.000000e+00 0.000000e+00
1
Step 421000
Ar -2.947741e-01 0.000000e+00 0.000000e+00
1
Step 422000
Ar -3.293509e-01 0.000000e+00 0.000000e+00
1
Step 423000
Ar -3.443547e-01 0.000000e+00 0.000000e+00
1
Step 424000
Ar -3.612554e-01 0.000000e+00 0.000000e+00
1
Step 425000
Ar -3.320910e-01 0.000000e+00 0.000000e+00
1
Step 426000
Ar -8.408359e-01 0.000000e+00 0.000000e+00
1
Step 427000
Ar -8.776662e-01 0.000000e+00 0.000000e+00
1
Step 428000
Ar -8.814943e-01 0.000000e+00 0.000000e+00
1
Step 429000
Ar -8.852859e-01 0.000000e+00 0.000000e+00
1
Step 430000
Ar -8.498430e-01 0.000000e+00 0.000000e+00
1
Step 431000
Ar -8.188515e-01 0.000000e+00 0.000000e+00
1
Step 432000
Ar -8.106052e-01 0.000000e+00 0.000000e+00
1
Step 433000
Ar -8.147409e-01 0.000000e+00 0.000000e+00
1
Step 434000
Ar -7.913170e-01 0.000000e+00 0.000000e+00
1
Step 435000
Ar -7.864628e-01 0.000000e+00 0.000000e+00
1
Step 436000
Ar -8.369006e-01 0.000000e+00 0.000000e+00
1
Step 437000
Ar -8.205467e-01 0.000000e+00 0.000000e+00
1
Step 438000
Ar -8.230273e-01 0.000000e+00 0.000000e+00
1
Step 439000
Ar -8.148016e-01 0.000000e+00 0.000000e+00
1
Step 440000
Ar -8.059093e-01 0.000000e+00 0.000000e+00
1
Step 441000
Ar -1.189253e+00 0.000000e+00 0.000000e+00
1
Step 442000
Ar -1.194932e+00 0.000000e+00 0.000000e+00
1
Step 443000
Ar -1.189954e+00 0.000000e+00 0.000000e+00
1
Step 444000
Ar -1.193574e+00 0.000000e+00 0.000000e+00
1
Step 445000
Ar -1.195378e+00 0.000000e+00 0.000000e+00
1
Step 446000
Ar -9.845209e-01 0.000000e+00 0.000000e+00
1
Step 447000
Ar -9.844156e-01 0.000000e+00 0.000000e+00
1
Step 448000
Ar -9.845580e-01 0.000000e+00 0.000000e+00
1
Step 449000
Ar -9.793113e-01 0.000000e+00 0.000000e+00
1
Step 450000
Ar -9.903948e-01 0.000000e+00 0.000000e+00
1
Step 451000
Ar -1.347930e+00 0.000000e+00 0.000000e+00
1
Step 452000
Ar -1.346795e+00 0.000000e+00 0.000000e+00
1
Step 453000
Ar -1.288689e+00 0.000000e+00 0.000000e+00
1
Step 454000
Ar -1.318967e+00 0.000000e+00 0.000000e+00
1
Step 455000
Ar -1.360062e+00 0.000000e+00 0.000000e+00
1
Step 456000
Ar -9.468674e-01 0.000000e+00 0.000000e+00
1
Step 457000
Ar -9.263295e-01 0.000000e+00 0.000000e+00
1
Step 458000
Ar -8.695083e-01 0.000000e+00 0.000000e+00
1
Step 459000
Ar -8.982411e-01 0.000000e+00 0.000000e+00
1
Step 460000
Ar -8.820544e-01 0.000000e+00 0.000000e+00
1
Step 461000
Ar -9.509271e-01 0.000000e+00 0.000000e+00
1
Step 462000
Ar -9.249514e-01 0.000000e+00 0.000000e+00
1
Step 463000
Ar -8.981853e-01 0.000000e+00 0.000000e+00
1
Step 464000
Ar -9.452556e-01 0.000000e+00 0.000000e+00
1
Step 465000
Ar -9.136463e-01 0.000000e+00 0.000000e+00
1
Step 466000
Ar -8.972970e-01 0.000000e+00 0.000000e+00
1
Step 467000
Ar -8.963102e-01 0.000000e+00 0.000000e+00
1
Step 468000
Ar -8.949268e-01 0.000000e+00 0.000000e+00
1
Step 469000
Ar -8.952246e-01 0.000000e+00 0.000000e+00
1
Step 470000
Ar -8.988572e-01 0.000000e+00 0.000000e+00
1
Step 471000
Ar -7.242580e-01 0.000000e+00 0.000000e+00
1
Step 472000
Ar -7.411431e-01 0.000000e+00 0.000000e+00
1
Step 473000
Ar -7.515951e-01 0.000000e+00 0.000000e+00
1
Step 474000
Ar -7.390797e-01 0.000000e+00 0.000000e+00
1
Step 475000
Ar -7.308968e-01 0.000000e+00 0.000000e+00
1
Step 476000
Ar -7.655616e-01 0.000000e+00 0.000000e+00
1
Step 477000
Ar -7.732758e-01 0.000000e+00 0.000000e+00
1
Step 478000
Ar -7.692160e-01 0.000000e+00 0.000000e+00
1
Step 479000
Ar -7.688682e-01 0.000000e+00 0.000000e+00
1
Step 480000
Ar -7.534265e-01 0.000000e+00 0.000000e+00
1
Step 481000
Ar -9.430484e-01 0.000000e+00 0.000000e+00
1
Step 482000
Ar -9.520132e-01 0.000000e+00 0.000000e+00
1
Step 483000
Ar -9.553040e-01 0.000000e+00 0.000000e+00
1
Step 484000
Ar -9.290784e-01 0.000000e+00 0.000000e+00
1
Step 485000
Ar -9.270447e-01 0.000000e+00 0.000000e+00
1
Step 486000
Ar -9.452523e-01 0.000000e+00 0.000000e+00
1
Step 487000
Ar -9.403975e-01 0.000000e+00 0.000000e+00
1
Step 488000
Ar -9.513589e-01 0.000000e+00 0.000000e+00
1
Step 489000
Ar -9.505229e-01 0.000000e+00 0.000000e+00
1
Step 490000
Ar -9.420223e-01 0.000000e+00 0.000000e+00
1
Step 491000
Ar -6.392690e-01 0.000000e+00 0.000000e+00
1
Step 492000
Ar -5.164256e-01 0.000000e+00 0.000000e+00
1
Step 493000
Ar -6.427862e-01 0.000000e+00 0.000000e+00
1
Step 494000
Ar -6.891575e-01 0.000000e+00 0.000000e+00
1
Step 495000
Ar -6.832682e-01 0.000000e+00 0.000000e+00
1
Step 496000
Ar -7.123880e-01 0.000000e+00 0.000000e+00
1
Step 497000
Ar -7.201246e-01 0.000000e+00 0.000000e+00
1
Step 498000
Ar -7.160798e-01 0.000000e+00 0.000000e+00
1
Step 499000
Ar -7.134103e-01 0.000000e+00 0.000000e+00
1
Step 500000
Ar -7.148473e-01 0.000000e+00 0.000000e+00
1
Step 501000
Ar -7.440319e-01 0.000000e+00 0.000000e+00
1
Step 502000
Ar -7.401775e-01 0.000000e+00 0.000000e+00
1
Step 503000
Ar -7.388401e-01 0.000000e+00 0.000000e+00
1
Step 504000
Ar -7.431358e-01 0.000000e+00 0.000000e+00
1
Step 505000
Ar -7.399478e-01 0.000000e+00 0.000000e+00
1
Step 506000
Ar -1.312040e+00 0.000000e+00 0.000000e+00
1
Step 507000
Ar -1.316460e+00 0.000000e+00 0.000000e+00
1
Step 508000
Ar -1.307705e+00 0.000000e+00 0.000000e+00
1
Step 509000
Ar -1.298447e+00 0.000000e+00 0.000000e+00
1
Step 510000
Ar -1.320050e+00 0.000000e+00 0.000000e+00
1
Step 511000
Ar -1.263325e+00 0.000000e+00 0.000000e+00
1
Step 512000
Ar -1.255539e+00 0.000000e+00 0.000000e+00
1
Step 513000
Ar -1.256871e+00 0.000000e+00 0.000000e+00
1
Step 514000
Ar -1.258303e+00 0.000000e+00 0.000000e+00
1
Step 515000
Ar -1.257507e+00 0.000000e+00 0.000000e+00
1
Step 516000
Ar -1.290790e+00 0.000000e+00 0.000000e+00
1
Step 517000
Ar -1.287586e+00 0.000000e+00 0.000000e+00
1
Step 518000
Ar -1.303986e+00 0.000000e+00 0.000000e+00
1
Step 519000
Ar -1.288253e+00 0.000000e+00 0.000000e+00
1
Step 520000
Ar -1.303401e+00 0.000000e+00 0.000000e+00
1
Step 521000
Ar -1.376179e+00 0.000000e+00 0.000000e+00
1
Step 522000
Ar -1.376318e+00 0.000000e+00 0.000000e+00
1
Step 523000
Ar -1.373859e+00 0.000000e+00 0.000000e+00
1
Step 524000
Ar -1.390119e+00 0.000000e+00 0.000000e+00
1
Step 525000
Ar -1.424362e+00 0.000000e+00 0.000000e+00
1
Step 526000
Ar -1.339038e+00 0.000000e+00 0.000000e+00
1
Step 527000
Ar -1.338680e+00 0.000000e+00 0.000000e+00
1
Step 528000
Ar -1.345645e+00 0.000000e+00 0.000000e+00
1
Step 529000
Ar -1.342026e+00 0.000000e+00 0.000000e+00
1
Step 530000
Ar -1.334585e+00 0.000000e+00 0.000000e+00
1
Step 531000
Ar -1.345243e+00 0.000000e+00 0.000000e+00
1
Step 532000
Ar -1.344067e+00 0.000000e+00 0.000000e+00
1
Step 533000
Ar -1.349925e+00 0.000000e+00 0.000000e+00
1
Step 534000
Ar -1.347485e+00 0.000000e+00 0.000000e+00
1
Step 535000
Ar -1.346540e+00 0.000000e+00 0.000000e+00
1
Step 536000
Ar -1.405882e+00 0.000000e+00 0.000000e+00
1
Step 537000
Ar -1.410149e+00 0.000000e+00 0.000000e+00
1
Step 538000
Ar -1.376606e+00 0.000000e+00 0.000000e+00
1
Step 539000
Ar -1.379663e+00 0.000000e+00 0.000000e+00
1
Step 540000
Ar -1.399286e+00 0.000000e+00 0.000000e+00
1
Step 541000
Ar -1.211860e+00 0.000000e+00 0.000000e+00
1
Step 542000
Ar -1.372000e+00 0.000000e+00 0.000000e+00
1
Step 543000
Ar -1.372316e+00 0.000000e+00 0.000000e+00
1
Step 544000
Ar -1.379595e+00 0.000000e+00 0.000000e+00
1
Step 545000
Ar -1.381785e+00 0.000000e+00 0.000000e+00
1
Step 546000
Ar -1.367537e+00 0.000000e+00 0.000000e+00
1
Step 547000
Ar -1.364487e+00 0.000000e+00 0.000000e+00
1
Step 548000
Ar -1.371179e+00 0.000000e+00 0.000000e+00
1
Step 549000
Ar -1.370806e+00 0.000000e+00 0.000000e+00
1
Step 550000
Ar -1.369962e+00 0.000000e+00 0.000000e+00
1
Step 551000
Ar -1.410026e+00 0.000000e+00 0.000000e+00
1
Step 552000
Ar -1.413505e+00 0.000000e+00 0.000000e+00
1
Step 553000
Ar -1.409014e+00 0.000000e+00 0.000000e+00
1
Step 554000
Ar -1.461119e+00 0.000000e+00 0.000000e+00
1
Step 555000
Ar -1.444495e+00 0.000000e+00 0.000000e+00
1
Step 556000
Ar -8.691723e-01 0.000000e+00 0.000000e+00
1
Step 557000
Ar -8.602701e-01 0.000000e+00 0.000000e+00
1
Step 558000
Ar -8.637825e-01 0.000000e+00 0.000000e+00
1
Step 559000
Ar -8.697799e-01 0.000000e+00 0.000000e+00
1
Step 560000
Ar -8.645697e-01 0.000000e+00 0.000000e+00
1
Step 561000
Ar -7.693144e-01 0.000000e+00 0.000000e+00
1
Step 562000
Ar -7.694566e-01 0.000000e+00 0.000000e+00
1
Step 563000
Ar -7.684445e-01 0.000000e+00 0.000000e+00
1
Step 564000
Ar -7.650602e-01 0.000000e+00 0.000000e+00
1
Step 565000
Ar -7.662890e-01 0.000000e+00 0.000000e+00
1
Step 566000
Ar -8.393811e-01 0.000000e+00 0.000000e+00
1
Step 567000
Ar -8.220248e-01 0.000000e+00 0.000000e+00
1
Step 568000
Ar -8.320209e-01 0.000000e+00 0.000000e+00
1
Step 569000
Ar -8.320939e-01 0.000000e+00 0.000000e+00
1
Step 570000
Ar -8.393312e-01 0.000000e+00 0.000000e+00
1
Step 571000
Ar -8.187682e-01 0.000000e+00 0.000000e+00
1
Step 572000
Ar -8.264468e-01 0.000000e+00 0.000000e+00
1
Step 573000
Ar -8.194380e-01 0.000000e+00 0.000000e+00
1
Step 574000
Ar -8.220562e-01 0.000000e+00 0.000000e+00
1
Step 575000
Ar -8.238613e-01 0.000000e+00 0.000000e+00
1
Step 576000
Ar -6.457762e-01 0.000000e+00 0.000000e+00
1
Step 577000
Ar -6.369788e-01 0.000000e+00 0.000000e+00
1
Step 578000
Ar -6.126472e-01 0.000000e+00 0.000000e+00
1
Step 579000
Ar -6.529903e-01 0.000000e+00 0.000000e+00
1
Step 580000
Ar -5.868642e-01 0.000000e+00 0.000000e+00
1
Step 581000
Ar -6.583234e-01 0.000000e+00 0.000000e+00
1
Step 582000
Ar -6.161742e-01 0.000000e+00 0.000000e+00
1
Step 583000
Ar -6.195732e-01 0.000000e+00 0.000000e+00
1
Step 584000
Ar -6.145490e-01 0.000000e+00 0.000000e+00
1
Step 585000
Ar -6.402049e-01 0.000000e+00 0.000000e+00
1
Step 586000
Ar -6.327765e-01 0.000000e+00 0.000000e+00
1
Step 587000
Ar -6.232600e-01 0.000000e+00 0.000000e+00
1
Step 588000
Ar -6.042803e-01 0.000000e+00 0.000000e+00
1
Step 589000
Ar -6.301245e-01 0.000000e+00 0.000000e+00
1
Step 590000
Ar -6.211280e-01 0.000000e+00 0.000000e+00
1
Step 591000
Ar -6.079253e-01 0.000000e+00 0.000000e+00
1
Step 592000
Ar -5.930956e-01 0.000000e+00 0.000000e+00
1
Step 593000
Ar -6.065696e-01 0.000000e+00 0.000000e+00
1
Step 594000
Ar -6.016554e-01 0.000000e+00 0.000000e+00
1
Step 595000
Ar -6.008649e-01 0.000000e+00 0.000000e+00
1
Step 596000
Ar -9.839402e-01 0.000000e+00 0.000000e+00
1
Step 597000
Ar -1.009806e+00 0.000000e+00 0.000000e+00
1
Step 598000
Ar -1.008414e+00 0.000000e+00 0.000000e+00
1
Step 599000
Ar -1.031095e+00 0.000000e+00 0.000000e+00
1
Step 600000
Ar -1.028562e+00 0.000000e+00 0.000000e+00
1
Step 601000
Ar -5.412039e-01 0.000000e+00 0.000000e+00
1
Step 602000
Ar -5.101187e-01 0.000000e+00 0.000000e+00
1
Step 603000
Ar -5.326018e-01 0.000000e+00 0.000000e+00
1
Step 604000
Ar -5.662191e-01 0.000000e+00 0.000000e+00
1
Step 605000
Ar -5.418290e-01 0.000000e+00 0.000000e+00
1
Step 606000
Ar -4.921478e-01 0.000000e+00 0.000000e+00
1
Step 607000
Ar -4.727381e-01 0.000000e+00 0.000000e+00
1
Step 608000
Ar -4.987135e-01 0.000000e+00 0.000000e+00
1
Step 609000
Ar -4.384330e-01 0.000000e+00 0.000000e+00
1
Step 610000
Ar -5.044177e-01 0.000000e+00 0.000000e+00
1
Step 611000
Ar -5.239198e-01 0.000000e+00 0.000000e+00
1
Step 612000
Ar -5.232140e-01 0.000000e+00 0.000000e+00
1
Step 613000
Ar -1.528812e+00 0.000000e+00 0.000000e+00
1
Step 614000
Ar -1.486645e+00 0.000000e+00 0.000000e+00
1
Step 615000
Ar -1.457495e+00 0.000000e+00 0.000000e+00
1
Step 616000
Ar -1.250359e+00 0.000000e+00 0.000000e+00
1
Step 617000
Ar -1.245664e+00 0.000000e+00 0.000000e+00
1
Step 618000
Ar -1.248159e+00 0.000000e+00 0.000000e+00
1
Step 619000
Ar -1.249018e+00 0.000000e+00 0.000000e+00
1
Step 620000
Ar -1.250005e+00 0.000000e+00 0.000000e+00
1
Step 621000
Ar -1.013637e+00 0.000000e+00 0.000000e+00
1
Step 622000
Ar -1.005637e+00 0.000000e+00 0.000000e+00
1
Step 623000
Ar -1.004422e+00 0.000000e+00 0.000000e+00
1
Step 624000
Ar -1.009686e+00 0.000000e+00 0.000000e+00
1
Step 625000
Ar -1.010299e+00 0.000000e+00 0.000000e+00
1
Step 626000
Ar -9.549351e-01 0.000000e+00 0.000000e+00
1
Step 627000
Ar -9.534818e-01 0.000000e+00 0.000000e+00
1
Step 628000
Ar -9.523899e-01 0.000000e+00 0.000000e+00
1
Step 629000
Ar -9.518769e-01 0.000000e+00 0.000000e+00
1
Step 630000
Ar -9.492354e-01 0.000000e+00 0.000000e+00
1
Step 631000
Ar -9.780373e-01 0.000000e+00 0.000000e+00
1
Step 632000
Ar -9.793058e-01 0.000000e+00 0.000000e+00
1
Step 633000
Ar -9.770671e-01 0.000000e+00 0.000000e+00
1
Step 634000
Ar -9.795212e-01 0.000000e+00 0.000000e+00
1
Step 635000
Ar -9.733310e-01 0.000000e+00 0.000000e+00
1
Step 636000
Ar -6.608627e-01 0.000000e+00 0.000000e+00
1
Step 637000
Ar -6.581268e-01 0.000000e+00 0.000000e+00
1
Step 638000
Ar -6.670088e-01 0.000000e+00 0.000000e+00
1
Step 639000
Ar -6.636124e-01 0.000000e+00 0.000000e+00
1
Step 640000
Ar -6.631712e-01 0.000000e+00 0.000000e+00
1
Step 641000
Ar -6.537816e-01 0.000000e+00 0.000000e+00
1
Step 642000
Ar -6.543108e-01 0.000000e+00 0.000000e+00
1
Step 643000
Ar -6.501706e-01 0.000000e+00 0.000000e+00
1
Step 644000
Ar -6.516390e-01 0.000000e+00 0.000000e+00
1
Step 645000
Ar -6.483149e-01 0.000000e+00 0.000000e+00
1
Step 646000
Ar -1.129530e+00 0.000000e+00 0.000000e+00
1
Step 647000
Ar -1.138690e+00 0.000000e+00 0.000000e+00
1
Step 648000
Ar -1.129660e+00 0.000000e+00 0.000000e+00
1