1
Step 120000
Ar 9.959348e-01 0.000000e+00 0.000000e+00
1
Step 121000
Ar 9.844282e-01 0.000000e+00 0.000000e+00
1
Step 122000
Ar 1.000011e+00 0.000000e+00 0.000000e+00
1
Step 123000
Ar 1.001240e+00 0.000000e+00 0.000000e+00
1
Step 124000
Ar 1.002765e+00 0.000000e+00 0.000000e+00
1
Step 125000
Ar 1.005479e+00 0.000000e+00 0.000000e+00
1
Step 126000
Ar 1.020364e+00 0.000000e+00 0.000000e+00
1
Step 127000
Ar 1.029590e+00 0.000000e+00 0.000000e+00
1
Step 128000
Ar 1.029005e+00 0.000000e+00 0.000000e+00
1
Step 129000
Ar 1.025497e+00 0.000000e+00 0.000000e+00
1
Step 130000
Ar 1.016708e+00 0.000000e+00 0.000000e+00
1
Step 131000
Ar 9.806622e-01 0.000000e+00 0.000000e+00
1
Step 132000
Ar 9.769120e-01 0.000000e+00 0.000000e+00
1
Step 133000
Ar 9.733053e-01 0.000000e+00 0.000000e+00
1
Step 134000
Ar 9.712373e-01 0.000000e+00 0.000000e+00
1
Step 135000
Ar 9.510683e-01 0.000000e+00 0.000000e+00
1
Step 136000
Ar 9.511528e-01 0.000000e+00 0.000000e+00
1
Step 137000
Ar 9.538966e-01 0.000000e+00 0.000000e+00
1
Step 138000
Ar 9.572140e-01 0.000000e+00 0.000000e+00
1
Step 139000
Ar 9.573479e-01 0.000000e+00 0.000000e+00
1
Step 140000
Ar 9.503377e-01 0.000000e+00 0.000000e+00
1
Step 141000
Ar 9.567166e-01 0.000000e+00 0.000000e+00
1
Step 142000
Ar 9.499717e-01 0.000000e+00 0.000000e+00
1
Step 143000
Ar 9.543827e-01 0.000000e+00 0.000000e+00
1
Step 144000
Ar 9.582715e-01 0.000000e+00 0.000000e+00
1
Step 145000
Ar 1.033033e+00 0.000000e+00 0.000000e+00
1
Step 146000
Ar 1.033279e+00 0.000000e+00 0.000000e+00
1
Step 147000
Ar 1.025307e+00 0.000000e+00 0.000000e+00
1
Step 148000
Ar 1.035184e+00 0.000000e+00 0.000000e+00
1
Step 149000
Ar 1.032218e+00 0.000000e+00 0.000000e+00
1
Step 150000
Ar 1.030432e+00 0.000000e+00 0.000000e+00
1
Step 151000
Ar 1.041567e+00 0.000000e+00 0.000000e+00
1
Step 152000
Ar 1.027300e+00 0.000000e+00 0.000000e+00
1
Step 153000
Ar 1.025114e+00 0.000000e+00 0.000000e+00
1
Step 154000
Ar 1.048357e+00 0.000000e+00 0.000000e+00
1
Step 155000
Ar 1.052229e+00 0.000000e+00 0.000000e+00
1
Step 156000
Ar 1.049251e+00 0.000000e+00 0.000000e+00
1
Step 157000
Ar 1.046113e+00 0.000000e+00 0.000000e+00
1
Step 158000
Ar 1.053969e+00 0.000000e+00 0.000000e+00
1
Step 159000
Ar 1.048030e+00 0.000000e+00 0.000000e+00
1
Step 160000
Ar 1.048940e+00 0.000000e+00 0.000000e+00
1
Step 161000
Ar 1.052675e+00 0.000000e+00 0.000000e+00
1
Step 162000
Ar 1.049126e+00 0.000000e+00 0.000000e+00
1
Step 163000
Ar 1.046745e+00 0.000000e+00 0.000000e+00
1
Step 164000
Ar 1.054001e+00 0.000000e+00 0.000000e+00
1
Step 165000
Ar 1.051246e+00 0.000000e+00 0.000000e+00
1
Step 166000
Ar 1.048294e+00 0.000000e+00 0.000000e+00
1
Step 167000
Ar 1.047767e+00 0.000000e+00 0.000000e+00
1
Step 168000
Ar 1.046128e+00 0.000000e+00 0.000000e+00
1
Step 169000
Ar 1.049474e+00 0.000000e+00 0.000000e+00
1
Step 170000
Ar 1.045293e+00 0.000000e+00 0.000000e+00
1
Step 171000
Ar 1.049546e+00 0.000000e+00 0.000000e+00
1
Step 172000
Ar 1.045962e+00 0.000000e+00 0.000000e+00
1
Step 173000
Ar 1.047500e+00 0.000000e+00 0.000000e+00
1
Step 174000
Ar 1.048851e+00 0.000000e+00 0.000000e+00
1
Step 175000
Ar 1.053757e+00 0.000000e+00 0.000000e+00
1
Step 176000
Ar 1.049376e+00 0.000000e+00 0.000000e+00
1
Step 177000
Ar 1.047524e+00 0.000000e+00 0.000000e+00
1
Step 178000
Ar 1.049551e+00 0.000000e+00 0.000000e+00
1
Step 179000
Ar 1.045220e+00 0.000000e+00 0.000000e+00
1
Step 180000
Ar 1.048784e+00 0.000000e+00 0.000000e+00
1
Step 181000
Ar 1.045799e+00 0.000000e+00 0.000000e+00
1
Step 182000
Ar 1.051236e+00 0.000000e+00 0.000000e+00
1
Step 183000
Ar 1.054364e+00 0.000000e+00 0.000000e+00
1
Step 184000
Ar 9.406356e-01 0.000000e+00 0.000000e+00
1
Step 185000
Ar 9.796944e-01 0.000000e+00 0.000000e+00
1
Step 186000
Ar 1.048555e+00 0.000000e+00 0.000000e+00
1
Step 187000
Ar 1.047789e+00 0.000000e+00 0.000000e+00
1
Step 188000
Ar 9.931416e-01 0.000000e+00 0.000000e+00
1
Step 189000
Ar 9.958803e-01 0.000000e+00 0.000000e+00
1
Step 190000
Ar 9.912945e-01 0.000000e+00 0.000000e+00
1
Step 191000
Ar 9.963126e-01 0.000000e+00 0.000000e+00
1
Step 192000
Ar 9.944572e-01 0.000000e+00 0.000000e+00
1
Step 193000
Ar 9.915350e-01 0.000000e+00 0.000000e+00
1
Step 194000
Ar 9.953920e-01 0.000000e+00 0.000000e+00
1
Step 195000
Ar 1.029607e+00 0.000000e+00 0.000000e+00
1
Step 196000
Ar 1.031999e+00 0.000000e+00 0.000000e+00
1
Step 197000
Ar 1.070804e+00 0.000000e+00 0.000000e+00
1
Step 198000
Ar 1.074523e+00 0.000000e+00 0.000000e+00
1
Step 199000
Ar 1.006627e+00 0.000000e+00 0.000000e+00
1
Step 200000
Ar 9.313170e-01 0.000000e+00 0.000000e+00
1
Step 201000
Ar 9.299659e-01 0.000000e+00 0.000000e+00
1
Step 202000
Ar 9.265731e-01 0.000000e+00 0.000000e+00
1
Step 203000
Ar 9.244425e-01 0.000000e+00 0.000000e+00
1
Step 204000
Ar 9.458447e-01 0.000000e+00 0.000000e+00
1
Step 205000
Ar 7.585042e-01 0.000000e+00 0.000000e+00
1
Step 206000
Ar 9.678387e-01 0.000000e+00 0.000000e+00
1
Step 207000
Ar 9.631732e-01 0.000000e+00 0.000000e+00
1
Step 208000
Ar 1.082355e+00 0.000000e+00 0.000000e+00
1
Step 209000
Ar 1.084261e+00 0.000000e+00 0.000000e+00
1
Step 210000
Ar 1.049406e+00 0.000000e+00 0.000000e+00
1
Step 211000
Ar 1.050341e+00 0.000000e+00 0.000000e+00
1
Step 212000
Ar 1.045665e+00 0.000000e+00 0.000000e+00
1
Step 213000
Ar 9.785299e-01 0.000000e+00 0.000000e+00
1
Step 214000
Ar 1.042706e+00 0.000000e+00 0.000000e+00
1
Step 215000
Ar 1.047305e+00 0.000000e+00 0.000000e+00
1
Step 216000
Ar 1.043414e+00 0.000000e+00 0.000000e+00
1
Step 217000
Ar 1.048327e+00 0.000000e+00 0.000000e+00
1
Step 218000
Ar 1.046671e+00 0.000000e+00 0.000000e+00
1
Step 219000
Ar 1.047959e+00 0.000000e+00 0.000000e+00
1
Step 220000
Ar 1.045043e+00 0.000000e+00 0.000000e+00
1
Step 221000
Ar 1.045522e+00 0.000000e+00 0.000000e+00
1
Step 222000
Ar 1.001216e+00 0.000000e+00 0.000000e+00
1
Step 223000
Ar 9.906108e-01 0.000000e+00 0.000000e+00
1
Step 224000
Ar 1.010745e+00 0.000000e+00 0.000000e+00
1
Step 225000
Ar 1.012050e+00 0.000000e+00 0.000000e+00
1
Step 226000
Ar 1.015054e+00 0.000000e+00 0.000000e+00
1
Step 227000
Ar 1.006904e+00 0.000000e+00 0.000000e+00
1
Step 228000
Ar 9.905399e-01 0.000000e+00 0.000000e+00
1
Step 229000
Ar 1.027706e+00 0.000000e+00 0.000000e+00
1
Step 230000
Ar 1.028182e+00 0.000000e+00 0.000000e+00
1
Step 231000
Ar 1.039862e+00 0.000000e+00 0.000000e+00
1
Step 232000
Ar 9.911784e-01 0.000000e+00 0.000000e+00
1
Step 233000
Ar 9.907752e-01 0.000000e+00 0.000000e+00
1
Step 234000
Ar 9.864424e-01 0.000000e+00 0.000000e+00
1
Step 235000
Ar 9.865463e-01 0.000000e+00 0.000000e+00
1
Step 236000
Ar 9.889644e-01 0.000000e+00 0.000000e+00
1
Step 237000
Ar 9.862255e-01 0.000000e+00 0.000000e+00
1
Step 238000
Ar 1.012856e+00 0.000000e+00 0.000000e+00
1
Step 239000
Ar 1.028135e+00 0.000000e+00 0.000000e+00
1
Step 240000
Ar 9.102346e-01 0.000000e+00 0.000000e+00
1
Step 241000
Ar 9.108952e-01 0.000000e+00 0.000000e+00
1
Step 242000
Ar 9.071293e-01 0.000000e+00 0.000000e+00
1
Step 243000
Ar 9.108738e-01 0.000000e+00 0.000000e+00
1
Step 244000
Ar 9.086087e-01 0.000000e+00 0.000000e+00
1
Step 245000
Ar 1.041223e+00 0.000000e+00 0.000000e+00
1
Step 246000
Ar 1.032390e+00 0.000000e+00 0.000000e+00
1
Step 247000
Ar 9.798352e-01 0.000000e+00 0.000000e+00
1
Step 248000
Ar 1.051425e+00 0.000000e+00 0.000000e+00
1
Step 249000
Ar 9.126976e-01 0.000000e+00 0.000000e+00
1
Step 250000
Ar 9.120846e-01 0.000000e+00 0.000000e+00
1
Step 251000
Ar 9.122166e-01 0.000000e+00 0.000000e+00
1
Step 252000
Ar 9.107552e-01 0.000000e+00 0.000000e+00
1
Step 253000
Ar 9.133124e-01 0.000000e+00 0.000000e+00
1
Step 254000
Ar 9.068155e-01 0.000000e+00 0.000000e+00
1
Step 255000
Ar 9.122255e-01 0.000000e+00 0.000000e+00
1
Step 256000
Ar 9.126840e-01 0.000000e+00 0.000000e+00
1
Step 257000
Ar 9.112577e-01 0.000000e+00 0.000000e+00
1
Step 258000
Ar 9.104265e-01 0.000000e+00 0.000000e+00
1
Step 259000
Ar 9.108145e-01 0.000000e+00 0.000000e+00
1
Step 260000
Ar 9.447622e-01 0.000000e+00 0.000000e+00
1
Step 261000
Ar 1.047599e+00 0.000000e+00 0.000000e+00
1
Step 262000
Ar 1.123290e+00 0.000000e+00 0.000000e+00
1
Step 263000
Ar 1.087029e+00 0.000000e+00 0.000000e+00
1
Step 264000
Ar 1.086594e+00 0.000000e+00 0.000000e+00
1
Step 265000
Ar 1.067564e+00 0.000000e+00 0.000000e+00
1
Step 266000
Ar 9.638873e-01 0.000000e+00 0.000000e+00
1
Step 267000
Ar 1.052895e+00 0.000000e+00 0.000000e+00
1
Step 268000
Ar 9.698257e-01 0.000000e+00 0.000000e+00
1
Step 269000
Ar 8.387337e-01 0.000000e+00 0.000000e+00
1
Step 270000
Ar 8.834012e-01 0.000000e+00 0.000000e+00
1
Step 271000
Ar 8.797999e-01 0.000000e+00 0.000000e+00
1
Step 272000
Ar 8.826303e-01 0.000000e+00 0.000000e+00
1
Step 273000
Ar 8.717305e-01 0.000000e+00 0.000000e+00
1
Step 274000
Ar 8.808078e-01 0.000000e+00 0.000000e+00
1
Step 275000
Ar 8.785845e-01 0.000000e+00 0.000000e+00
1
Step 276000
Ar 8.736753e-01 0.000000e+00 0.000000e+00
1
Step 277000
Ar 8.762966e-01 0.000000e+00 0.000000e+00
1
Step 278000
Ar 8.764511e-01 0.000000e+00 0.000000e+00
1
Step 279000
Ar 8.802821e-01 0.000000e+00 0.000000e+00
1
Step 280000
Ar 8.763258e-01 0.000000e+00 0.000000e+00
1
Step 281000
Ar 8.806165e-01 0.000000e+00 0.000000e+00
1
Step 282000
Ar 8.794219e-01 0.000000e+00 0.000000e+00
1
Step 283000
Ar 8.761012e-01 0.000000e+00 0.000000e+00
1
Step 284000
Ar 8.764952e-01 0.000000e+00 0.000000e+00
1
Step 285000
Ar 8.760637e-01 0.000000e+00 0.000000e+00
1
Step 286000
Ar 8.738853e-01 0.000000e+00 0.000000e+00
1
Step 287000
Ar 8.743745e-01 0.000000e+00 0.000000e+00
1
Step 288000
Ar 8.742082e-01 0.000000e+00 0.000000e+00
1
Step 289000
Ar 1.000848e+00 0.000000e+00 0.000000e+00
1
Step 290000
Ar 9.626527e-01 0.000000e+00 0.000000e+00
1
Step 291000
Ar 8.669659e-01 0.000000e+00 0.000000e+00
1
Step 292000
Ar 1.177022e+00 0.000000e+00 0.000000e+00
1
Step 293000
Ar 8.528138e-01 0.000000e+00 0.000000e+00
1
Step 294000
Ar 8.711705e-01 0.000000e+00 0.000000e+00
1
Step 295000
Ar 8.754103e-01 0.000000e+00 0.000000e+00
1
Step 296000
Ar 8.693628e-01 0.000000e+00 0.000000e+00
1
Step 297000
Ar 8.773175e-01 0.000000e+00 0.000000e+00
1
Step 298000
Ar 1.171595e+00 0.000000e+00 0.000000e+00
1
Step 299000
Ar 1.112401e+00 0.000000e+00 0.000000e+00
1
Step 300000
Ar 8.683610e-01 0.000000e+00 0.000000e+00
1
Step 301000
Ar 8.228658e-01 0.000000e+00 0.000000e+00
1
Step 302000
Ar 9.799068e-01 0.000000e+00 0.000000e+00
1
Step 303000
Ar 1.000081e+00 0.000000e+00 0.000000e+00
1
Step 304000
Ar 9.044567e-01 0.000000e+00 0.000000e+00
1
Step 305000
Ar 1.097912e+00 0.000000e+00 0.000000e+00
1
Step 306000
Ar 1.093276e+00 0.000000e+00 0.000000e+00
1
Step 307000
Ar 1.018054e+00 0.000000e+00 0.000000e+00
1
Step 308000
Ar 8.667593e-01 0.000000e+00 0.000000e+00
1
Step 309000
Ar 9.490426e-01 0.000000e+00 0.000000e+00
1
Step 310000
Ar 9.565606e-01 0.000000e+00 0.000000e+00
1
Step 311000
Ar 9.964278e-01 0.000000e+00 0.000000e+00
1
Step 312000
Ar 8.924093e-01 0.000000e+00 0.000000e+00
1
Step 313000
Ar 9.464888e-01 0.000000e+00 0.000000e+00
1
Step 314000
Ar 9.454045e-01 0.000000e+00 0.000000e+00
1
Step 315000
Ar 9.785277e-01 0.000000e+00 0.000000e+00
1
Step 316000
Ar 9.294732e-01 0.000000e+00 0.000000e+00
1
Step 317000
Ar 9.689562e-01 0.000000e+00 0.000000e+00
1
Step 318000
Ar 9.622425e-01 0.000000e+00 0.000000e+00
1
Step 319000
Ar 9.710756e-01 0.000000e+00 0.000000e+00
1
Step 320000
Ar 8.756746e-01 0.000000e+00 0.000000e+00
1
Step 321000
Ar 8.726165e-01 0.000000e+00 0.000000e+00
1
Step 322000
Ar 8.673201e-01 0.000000e+00 0.000000e+00
1
Step 323000
Ar 8.675149e-01 0.000000e+00 0.000000e+00
1
Step 324000
Ar 8.670081e-01 0.000000e+00 0.000000e+00
1
Step 325000
Ar 8.686886e-01 0.000000e+00 0.000000e+00
1
Step 326000
Ar 8.705380e-01 0.000000e+00 0.000000e+00
1
Step 327000
Ar 1.050562e+00 0.000000e+00 0.000000e+00
1
Step 328000
Ar 9.809261e-01 0.000000e+00 0.000000e+00
1
Step 329000
Ar 9.765208e-01 0.000000e+00 0.000000e+00
1
Step 330000
Ar 9.733628e-01 0.000000e+00 0.000000e+00
1
Step 331000
Ar 9.765318e-01 0.000000e+00 0.000000e+00
1
Step 332000
Ar 9.763865e-01 0.000000e+00 0.000000e+00
1
Step 333000
Ar 9.769596e-01 0.000000e+00 0.000000e+00
1
Step 334000
Ar 9.759503e-01 0.000000e+00 0.000000e+00
1
Step 335000
Ar 9.754691e-01 0.000000e+00 0.000000e+00
1
Step 336000
Ar 9.752025e-01 0.000000e+00 0.000000e+00
1
Step 337000
Ar 9.746335e-01 0.000000e+00 0.000000e+00
1
Step 338000
Ar 9.753830e-01 0.000000e+00 0.000000e+00
1
Step 339000
Ar 9.702408e-01 0.000000e+00 0.000000e+00
1
Step 340000
Ar 9.718023e-01 0.000000e+00 0.000000e+00
1
Step 341000
Ar 9.736628e-01 0.000000e+00 0.000000e+00
1
Step 342000
Ar 9.694538e-01 0.000000e+00 0.000000e+00
1
Step 343000
Ar 9.729268e-01 0.000000e+00 0.000000e+00
1
Step 344000
Ar 9.748278e-01 0.000000e+00 0.000000e+00
1
Step 345000
Ar 9.734490e-01 0.000000e+00 0.000000e+00
1
Step 346000
Ar 9.776366e-01 0.000000e+00 0.000000e+00
1
Step 347000
Ar 9.767786e-01 0.000000e+00 0.000000e+00
1
Step 348000
Ar 9.757292e-01 0.000000e+00 0.000000e+00
1
Step 349000
Ar 9.764744e-01 0.000000e+00 0.000000e+00
1
Step 350000
Ar 9.756257e-01 0.000000e+00 0.000000e+00
1
Step 351000
Ar 9.745090e-01 0.000000e+00 0.000000e+00
1
Step 352000
Ar 9.735462e-01 0.000000e+00 0.000000e+00
1
Step 353000
Ar 9.727335e-01 0.000000e+00 0.000000e+00
1
Step 354000
Ar 9.748892e-01 0.000000e+00 0.000000e+00
1
Step 355000
Ar 9.734663e-01 0.000000e+00 0.000000e+00
1
Step 356000
Ar 9.765066e-01 0.000000e+00 0.000000e+00
1
Step 357000
Ar 9.747603e-01 0.000000e+00 0.000000e+00
1
Step 358000
Ar 9.717218e-01 0.000000e+00 0.000000e+00
1
Step 359000
Ar 9.745149e-01 0.000000e+00 0.000000e+00
1
Step 360000
Ar 9.793147e-01 0.000000e+00 0.000000e+00
1
Step 361000
Ar 9.738902e-01 0.000000e+00 0.000000e+00
1
Step 362000
Ar 9.790245e-01 0.000000e+00 0.000000e+00
1
Step 363000
Ar 9.757331e-01 0.000000e+00 0.000000e+00
1
Step 364000
Ar 9.714282e-01 0.000000e+00 0.000000e+00
1
Step 365000
Ar 9.716902e-01 0.000000e+00 0.000000e+00
1
Step 366000
Ar 9.766482e-01 0.000000e+00 0.000000e+00
1
Step 367000
Ar 1.141227e+00 0.000000e+00 0.000000e+00
1
Step 368000
Ar 1.069411e+00 0.000000e+00 0.000000e+00
1
Step 369000
Ar 9.835112e-01 0.000000e+00 0.000000e+00
1
Step 370000
Ar 9.177482e-01 0.000000e+00 0.000000e+00
1
Step 371000
Ar 1.078533e+00 0.000000e+00 0.000000e+00
1
Step 372000
Ar 9.588878e-01 0.000000e+00 0.000000e+00
1
Step 373000
Ar 1.029583e+00 0.000000e+00 0.000000e+00
1
Step 374000
Ar 1.024229e+00 0.000000e+00 0.000000e+00
1
Step 375000
Ar 1.028896e+00 0.000000e+00 0.000000e+00
1
Step 376000
Ar 1.028391e+00 0.000000e+00 0.000000e+00
1
Step 377000
Ar 9.066320e-01 0.000000e+00 0.000000e+00
1
Step 378000
Ar 9.833654e-01 0.000000e+00 0.000000e+00
1
Step 379000
Ar 9.439147e-01 0.000000e+00 0.000000e+00
1
Step 380000
Ar 9.446383e-01 0.000000e+00 0.000000e+00
1
Step 381000
Ar 8.569516e-01 0.000000e+00 0.000000e+00
1
Step 382000
Ar 8.523680e-01 0.000000e+00 0.000000e+00
1
Step 383000
Ar 8.565967e-01 0.000000e+00 0.000000e+00
1
Step 384000
Ar 8.569754e-01 0.000000e+00 0.000000e+00
1
Step 385000
Ar 9.436945e-01 0.000000e+00 0.000000e+00
1
Step 386000
Ar 9.457079e-01 0.000000e+00 0.000000e+00
1
Step 387000
Ar 9.365508e-01 0.000000e+00 0.000000e+00
1
Step 388000
Ar 9.464771e-01 0.000000e+00 0.000000e+00
1
Step 389000
Ar 1.163358e+00 0.000000e+00 0.000000e+00
1
Step 390000
Ar 8.498615e-01 0.000000e+00 0.000000e+00
1
Step 391000
Ar 8.452348e-01 0.000000e+00 0.000000e+00
1
Step 392000
Ar 8.522644e-01 0.000000e+00 0.000000e+00
1
Step 393000
Ar 8.492134e-01 0.000000e+00 0.000000e+00
1
Step 394000
Ar 8.317246e-01 0.000000e+00 0.000000e+00
1
Step 395000
Ar 9.020924e-01 0.000000e+00 0.000000e+00
1
Step 396000
Ar 8.020494e-01 0.000000e+00 0.000000e+00
1
Step 397000
Ar 9.379849e-01 0.000000e+00 0.000000e+00
1
Step 398000
Ar 9.492004e-01 0.000000e+00 0.000000e+00
1
Step 399000
Ar 1.112218e+00 0.000000e+00 0.000000e+00
1
Step 400000
Ar 7.869110e-01 0.000000e+00 0.000000e+00
1
Step 401000
Ar 9.619610e-01 0.000000e+00 0.000000e+00
1
Step 402000
Ar 9.623726e-01 0.000000e+00 0.000000e+00
1
Step 403000
Ar 9.325495e-01 0.000000e+00 0.000000e+00
1
Step 404000
Ar 1.015613e+00 0.000000e+00 0.000000e+00
1
Step 405000
Ar 9.339894e-01 0.000000e+00 0.000000e+00
1
Step 406000
Ar 1.034302e+00 0.000000e+00 0.000000e+00
1
Step 407000
Ar 1.045179e+00 0.000000e+00 0.000000e+00
1
Step 408000
Ar 1.103694e+00 0.000000e+00 0.000000e+00
1
Step 409000
Ar 9.082464e-01 0.000000e+00 0.000000e+00
1
Step 410000
Ar 9.318779e-01 0.000000e+00 0.000000e+00
1
Step 411000
Ar 8.738268e-01 0.000000e+00 0.000000e+00
1
Step 412000
Ar 1.007507e+00 0.000000e+00 0.000000e+00
1
Step 413000
Ar 1.153042e+00 0.000000e+00 0.000000e+00
1
Step 414000
Ar 9.058140e-01 0.000000e+00 0.000000e+00
1
Step 415000
Ar 1.029597e+00 0.000000e+00 0.000000e+00
1
Step 416000
Ar 9.720090e-01 0.000000e+00 0.000000e+00
1
Step 417000
Ar -1.361788e+00 0.000000e+00 0.000000e+00
1
Step 418000
Ar -9.763892e-01 0.000000e+00 0.000000e+00
1
Step 419000
Ar -9.936009e-01 0.000000e+00 0.000000e+00
1
Step 420000
Ar -9.728739e-01 0.000000e+00 0.000000e+00
1
Step 421000
Ar -9.735625e-01 0.000000e+00 0.000000e+00
1
Step 422000
Ar -9.781503e-01 0.000000e+00 0.000000e+00
1
Step 423000
Ar -9.710529e-01 0.000000e+00 0.000000e+00
1
Step 424000
Ar -9.795969e-01 0.000000e+00 0.000000e+00
1
Step 425000
Ar -9.765610e-01 0.000000e+00 0.000000e+00
1
Step 426000
Ar -9.689149e-01 0.000000e+00 0.000000e+00
1
Step 427000
Ar -9.711653e-01 0.000000e+00 0.000000e+00
1
Step 428000
Ar -9.773831e-01 0.000000e+00 0.000000e+00
1
Step 429000
Ar -9.749647e-01 0.000000e+00 0.000000e+00
1
Step 430000
Ar -1.028241e+00 0.000000e+00 0.000000e+00
1
Step 431000
Ar -1.023838e+00 0.000000e+00 0.000000e+00
1
Step 432000
Ar -1.015663e+00 0.000000e+00 0.000000e+00
1
Step 433000
Ar -1.017755e+00 0.000000e+00 0.000000e+00
1
Step 434000
Ar -1.027327e+00 0.000000e+00 0.000000e+00
1
Step 435000
Ar -1.016862e+00 0.000000e+00 0.000000e+00
1
Step 436000
Ar -1.023719e+00 0.000000e+00 0.000000e+00
1
Step 437000
Ar -1.020179e+00 0.000000e+00 0.000000e+00
1
Step 438000
Ar -1.019700e+00 0.000000e+00 0.000000e+00
1
Step 439000
Ar -1.036341e+00 0.000000e+00 0.000000e+00
1
Step 440000
Ar -1.031334e+00 0.000000e+00 0.000000e+00
1
Step 441000
Ar -1.037438e+00 0.000000e+00 0.000000e+00
1
Step 442000
Ar -1.028237e+00 0.000000e+00 0.000000e+00
1
Step 443000
Ar -1.030166e+00 0.000000e+00 0.000000e+00
1
Step 444000
Ar -1.030478e+00 0.000000e+00 0.000000e+00
1
Step 445000
Ar -1.033814e+00 0.000000e+00 0.000000e+00
1
Step 446000
Ar -1.035967e+00 0.000000e+00 0.000000e+00
1
Step 447000
Ar -1.027864e+00 0.000000e+00 0.000000e+00
1
Step 448000
Ar -9.790378e-01 0.000000e+00 0.000000e+00
1
Step 449000
Ar -1.029457e+00 0.000000e+00 0.000000e+00
1
Step 450000
Ar -1.023414e+00 0.000000e+00 0.000000e+00
1
Step 451000
Ar -1.030837e+00 0.000000e+00 0.000000e+00
1
Step 452000
Ar -1.027683e+00 0.000000e+00 0.000000e+00
1
Step 453000
Ar -1.026468e+00 0.000000e+00 0.000000e+00
1
Step 454000
Ar -1.031369e+00 0.000000e+00 0.000000e+00
1
Step 455000
Ar -1.028870e+00 0.000000e+00 0.000000e+00
1
Step 456000
Ar -1.027478e+00 0.000000e+00 0.000000e+00
1
Step 457000
Ar -9.565816e-01 0.000000e+00 0.000000e+00
1
Step 458000
Ar -9.558404e-01 0.000000e+00 0.000000e+00
1
Step 459000
Ar -9.607031e-01 0.000000e+00 0.000000e+00
1
Step 460000
Ar -9.534395e-01 0.000000e+00 0.000000e+00
1
Step 461000
Ar -9.571447e-01 0.000000e+00 0.000000e+00
1
Step 462000
Ar -9.469206e-01 0.000000e+00 0.000000e+00
1
Step 463000
Ar -9.544510e-01 0.000000e+00 0.000000e+00
1
Step 464000
Ar -9.494061e-01 0.000000e+00 0.000000e+00
1
Step 465000
Ar -9.539805e-01 0.000000e+00 0.000000e+00
1
Step 466000
Ar -9.499012e-01 0.000000e+00 0.000000e+00
1
Step 467000
Ar -9.542947e-01 0.000000e+00 0.000000e+00
1
Step 468000
Ar -9.528681e-01 0.000000e+00 0.000000e+00
1
Step 469000
Ar -9.575426e-01 0.000000e+00 0.000000e+00
1
Step 470000
Ar -9.535473e-01 0.000000e+00 0.000000e+00
1
Step 471000
Ar -9.591918e-01 0.000000e+00 0.000000e+00
1
Step 472000
Ar -9.427768e-01 0.000000e+00 0.000000e+00
1
Step 473000
Ar -1.030579e+00 0.000000e+00 0.000000e+00
1
Step 474000
Ar -1.067835e+00 0.000000e+00 0.000000e+00
1
Step 475000
Ar -1.075408e+00 0.000000e+00 0.000000e+00
1
Step 476000
Ar -1.071492e+00 0.000000e+00 0.000000e+00
1
Step 477000
Ar -1.072657e+00 0.000000e+00 0.000000e+00
1
Step 478000
Ar -1.069206e+00 0.000000e+00 0.000000e+00
1
Step 479000
Ar -1.069225e+00 0.000000e+00 0.000000e+00
1
Step 480000
Ar -1.070635e+00 0.000000e+00 0.000000e+00
1
Step 481000
Ar -1.068577e+00 0.000000e+00 0.000000e+00
1
Step 482000
Ar -1.069575e+00 0.000000e+00 0.000000e+00
1
Step 483000
Ar -1.067840e+00 0.000000e+00 0.000000e+00
1
Step 484000
Ar -9.791028e-01 0.000000e+00 0.000000e+00
1
Step 485000
Ar -1.001323e+00 0.000000e+00 0.000000e+00
1
Step 486000
Ar -9.482118e-01 0.000000e+00 0.000000e+00
1
Step 487000
Ar -8.873105e-01 0.000000e+00 0.000000e+00
1
Step 488000
Ar -1.160291e+00 0.000000e+00 0.000000e+00
1
Step 489000
Ar -9.226843e-01 0.000000e+00 0.000000e+00
1
Step 490000
Ar -9.257153e-01 0.000000e+00 0.000000e+00
1
Step 491000
Ar -9.268520e-01 0.000000e+00 0.000000e+00
1
Step 492000
Ar -9.197563e-01 0.000000e+00 0.000000e+00
1
Step 493000
Ar -9.227214e-01 0.000000e+00 0.000000e+00
1
Step 494000
Ar -9.262467e-01 0.000000e+00 0.000000e+00
1
Step 495000
Ar -9.255612e-01 0.000000e+00 0.000000e+00
1
Step 496000
Ar -9.163233e-01 0.000000e+00 0.000000e+00
1
Step 497000
Ar -9.126397e-01 0.000000e+00 0.000000e+00
1
Step 498000
Ar -9.222581e-01 0.000000e+00 0.000000e+00
1
Step 499000
Ar -9.175863e-01 0.000000e+00 0.000000e+00
1
Step 500000
Ar -9.136759e-01 0.000000e+00 0.000000e+00
1
Step 501000
Ar -9.193297e-01 0.000000e+00 0.000000e+00
1
Step 502000
Ar -9.173883e-01 0.000000e+00 0.000000e+00
1
Step 503000
Ar -9.712279e-01 0.000000e+00 0.000000e+00
1
Step 504000
Ar -1.032457e+00 0.000000e+00 0.000000e+00
1
Step 505000
Ar -9.962839e-01 0.000000e+00 0.000000e+00
1
Step 506000
Ar -9.043271e-01 0.000000e+00 0.000000e+00
1
Step 507000
Ar -8.992141e-01 0.000000e+00 0.000000e+00
1
Step 508000
Ar -9.044064e-01 0.000000e+00 0.000000e+00
1
Step 509000
Ar -9.033556e-01 0.000000e+00 0.000000e+00
1
Step 510000
Ar -9.048129e-01 0.000000e+00 0.000000e+00
1
Step 511000
Ar -9.683732e-01 0.000000e+00 0.000000e+00
1
Step 512000
Ar -1.084130e+00 0.000000e+00 0.000000e+00
1
Step 513000
Ar -8.183826e-01 0.000000e+00 0.000000e+00
1
Step 514000
Ar -1.005424e+00 0.000000e+00 0.000000e+00
1
Step 515000
Ar -1.008107e+00 0.000000e+00 0.000000e+00
1
Step 516000
Ar -1.001641e+00 0.000000e+00 0.000000e+00
1
Step 517000
Ar -9.009014e-01 0.000000e+00 0.000000e+00
1
Step 518000
Ar -9.675682e-01 0.000000e+00 0.000000e+00
1
Step 519000
Ar -1.043293e+00 0.000000e+00 0.000000e+00
1
Step 520000
Ar -1.048321e+00 0.000000e+00 0.000000e+00
1
Step 521000
Ar -9.638901e-01 0.000000e+00 0.000000e+00
1
Step 522000
Ar -9.093954e-01 0.000000e+00 0.000000e+00
1
Step 523000
Ar -1.143523e+00 0.000000e+00 0.000000e+00
1
Step 524000
Ar -8.914526e-01 0.000000e+00 0.000000e+00
1
Step 525000
Ar -8.931132e-01 0.000000e+00 0.000000e+00
1
Step 526000
Ar -8.939007e-01 0.000000e+00 0.000000e+00
1
Step 527000
Ar -8.950827e-01 0.000000e+00 0.000000e+00
1
Step 528000
Ar -8.806415e-01 0.000000e+00 0.000000e+00
1
Step 529000
Ar -8.826699e-01 0.000000e+00 0.000000e+00
1
Step 530000
Ar -8.679953e-01 0.000000e+00 0.000000e+00
1
Step 531000
Ar -8.733658e-01 0.000000e+00 0.000000e+00
1
Step 532000
Ar -8.784324e-01 0.000000e+00 0.000000e+00
1
Step 533000
Ar -8.734146e-01 0.000000e+00 0.000000e+00
1
Step 534000
Ar -8.712934e-01 0.000000e+00 0.000000e+00
1
Step 535000
Ar -8.753363e-01 0.000000e+00 0.000000e+00
1
Step 536000
Ar -8.721072e-01 0.000000e+00 0.000000e+00
1
Step 537000
Ar -8.739990e-01 0.000000e+00 0.000000e+00
1
Step 538000
Ar -8.639837e-01 0.000000e+00 0.000000e+00
1
Step 539000
Ar -8.619961e-01 0.000000e+00 0.000000e+00
1
Step 540000
Ar -8.639078e-01 0.000000e+00 0.000000e+00
1
Step 541000
Ar -9.781075e-01 0.000000e+00 0.000000e+00
1
Step 542000
Ar -1.139717e+00 0.000000e+00 0.000000e+00
1
Step 543000
Ar -9.957394e-01 0.000000e+00 0.000000e+00
1
Step 544000
Ar -1.085484e+00 0.000000e+00 0.000000e+00
1
Step 545000
Ar -1.026249e+00 0.000000e+00 0.000000e+00
1
Step 546000
Ar -9.216051e-01 0.000000e+00 0.000000e+00
1
Step 547000
Ar -1.135499e+00 0.000000e+00 0.000000e+00
1
Step 548000
Ar -9.298816e-01 0.000000e+00 0.000000e+00
1
Step 549000
Ar -9.335996e-01 0.000000e+00 0.000000e+00
1
Step 550000
Ar -1.158280e+00 0.000000e+00 0.000000e+00
1
Step 551000
Ar -1.065651e+00 0.000000e+00 0.000000e+00
1
Step 552000
Ar -1.093216e+00 0.000000e+00 0.000000e+00
1
Step 553000
Ar -8.162015e-01 0.000000e+00 0.000000e+00
1
Step 554000
Ar -9.075483e-01 0.000000e+00 0.000000e+00
1
Step 555000
Ar -1.040584e+00 0.000000e+00 0.000000e+00
1
Step 556000
Ar -1.015241e+00 0.000000e+00 0.000000e+00
1
Step 557000
Ar -9.999410e-01 0.000000e+00 0.000000e+00
1
Step 558000
Ar -1.032869e+00 0.000000e+00 0.000000e+00
1
Step 559000
Ar -8.595077e-01 0.000000e+00 0.000000e+00
1
Step 560000
Ar -8.612181e-01 0.000000e+00 0.000000e+00
1
Step 561000
Ar -8.602447e-01 0.000000e+00 0.000000e+00
1
Step 562000
Ar -8.607465e-01 0.000000e+00 0.000000e+00
1
Step 563000
Ar -8.611931e-01 0.000000e+00 0.000000e+00
1
Step 564000
Ar -8.485144e-01 0.000000e+00 0.000000e+00
1
Step 565000
Ar -8.538448e-01 0.000000e+00 0.000000e+00
1
Step 566000
Ar -1.078816e+00 0.000000e+00 0.000000e+00
1
Step 567000
Ar -1.029655e+00 0.000000e+00 0.000000e+00
1
Step 568000
Ar -1.284997e+00 0.000000e+00 0.000000e+00
1
Step 569000
Ar -9.248582e-01 0.000000e+00 0.000000e+00
1
Step 570000
Ar -9.200061e-01 0.000000e+00 0.000000e+00
1
Step 571000
Ar -1.099699e+00 0.000000e+00 0.000000e+00
1
Step 572000
Ar -7.983367e-01 0.000000e+00 0.000000e+00
1
Step 573000
Ar -9.832323e-01 0.000000e+00 0.000000e+00
1
Step 574000
Ar -9.870377e-01 0.000000e+00 0.000000e+00
1
Step 575000
Ar -6.654173e-01 0.000000e+00 0.000000e+00
1
Step 576000
Ar -9.869555e-01 0.000000e+00 0.000000e+00
1
Step 577000
Ar -1.108586e+00 0.000000e+00 0.000000e+00
1
Step 578000
Ar -1.112321e+00 0.000000e+00 0.000000e+00
1
Step 579000
Ar -1.107871e+00 0.000000e+00 0.000000e+00
1
Step 580000
Ar -1.108734e+00 0.000000e+00 0.000000e+00
1
Step 581000
Ar -1.105499e+00 0.000000e+00 0.000000e+00
1
Step 582000
Ar -1.112148e+00 0.000000e+00 0.000000e+00
1
Step 583000
Ar -1.081052e+00 0.000000e+00 0.000000e+00
1
Step 584000
Ar -9.066031e-01 0.000000e+00 0.000000e+00
1
Step 585000
Ar -1.071910e+00 0.000000e+00 0.000000e+00
1
Step 586000
Ar -1.070006e+00 0.000000e+00 0.000000e+00
1
Step 587000
Ar -8.564221e-01 0.000000e+00 0.000000e+00
1
Step 588000
Ar -6.851833e-01 0.000000e+00 0.000000e+00
1
Step 589000
Ar -7.860499e-01 0.000000e+00 0.000000e+00
1
Step 590000
Ar -8.785777e-01 0.000000e+00 0.000000e+00
1
Step 591000
Ar -7.133617e-01 0.000000e+00 0.000000e+00
1
Step 592000
Ar -1.104703e+00 0.000000e+00 0.000000e+00
1
Step 593000
Ar -1.019872e+00 0.000000e+00 0.000000e+00
1
Step 594000
Ar -8.202555e-01 0.000000e+00 0.000000e+00
1
Step 595000
Ar -1.055868e+00 0.000000e+00 0.000000e+00
1
Step 596000
Ar -1.057593e+00 0.000000e+00 0.000000e+00
1
Step 597000
Ar -1.126158e+00 0.000000e+00 0.000000e+00
1
Step 598000
Ar -1.001552e+00 0.000000e+00 0.000000e+00
1
Step 599000
Ar -1.051969e+00 0.000000e+00 0.000000e+00
1
Step 600000
Ar -9.872930e-01 0.000000e+00 0.000000e+00
1
Step 601000
Ar -1.139889e+00 0.000000e+00 0.000000e+00
1
Step 602000
Ar -9.955401e-01 0.000000e+00 0.000000e+00
1
Step 603000
Ar -1.004387e+00 0.000000e+00 0.000000e+00
1
Step 604000
Ar -8.016225e-01 0.000000e+00 0.000000e+00
1
Step 605000
Ar -8.247426e-01 0.000000e+00 0.000000e+00
1
Step 606000
Ar -8.942457e-01 0.000000e+00 0.000000e+00
1
Step 607000
Ar -1.063276e+00 0.000000e+00 0.000000e+00
1
Step 608000
Ar -1.052552e+00 0.000000e+00 0.000000e+00
1
Step 609000
Ar -9.598602e-01 0.000000e+00 0.000000e+00
1
Step 610000
Ar -9.989433e-01 0.000000e+00 0.000000e+00
1
Step 611000
Ar -1.072956e+00 0.000000e+00 0.000000e+00
1
Step 612000
Ar -6.687206e-01 0.000000e+00 0.000000e+00
1
Step 613000
Ar -8.564070e-01 0.000000e+00 0.000000e+00
1
Step 614000
Ar -1.183940e+00 0.000000e+00 0.000000e+00
1
Step 615000
Ar -1.053140e+00 0.000000e+00 0.000000e+00
1
Step 616000
Ar -1.134323e+00 0.000000e+00 0.000000e+00
1
Step 617000
Ar -8.994605e-01 0.000000e+00 0.000000e+00
1
Step 618000
Ar -9.556531e-01 0.000000e+00 0.000000e+00
1
Step 619000
Ar -7.294596e-01 0.000000e+00 0.000000e+00
1
Step 620000
Ar -1.137842e+00 0.000000e+00 0.000000e+00
1
Step 621000
Ar -9.995196e-01 0.000000e+00 0.000000e+00
1
Step 622000
Ar -8.425920e-01 0.000000e+00 0.000000e+00
1
Step 623000
Ar -1.025877e+00 0.000000e+00 0.000000e+00
1
Step 624000
Ar -1.147781e+00 0.000000e+00 0.000000e+00
1
Step 625000
Ar -1.152962e+00 0.000000e+00 0.000000e+00
1
Step 626000
Ar -1.184309e+00 0.000000e+00 0.000000e+00
1
Step 627000
Ar -1.078963e+00 0.000000e+00 0.000000e+00
1
Step 628000
Ar -8.382856e-01 0.000000e+00 0.000000e+00
1
Step 629000
Ar -9.881665e-01 0.000000e+00 0.000000e+00
1
Step 630000
Ar -1.041428e+00 0.000000e+00 0.000000e+00
1
Step 631000
Ar -9.731621e-01 0.000000e+00 0.000000e+00
1
Step 632000
Ar -1.061619e+00 0.000000e+00 0.000000e+00
1
Step 633000
Ar -1.231946e+00 0.000000e+00 0.000000e+00
1
Step 634000
Ar -9.431308e-01 0.000000e+00 0.000000e+00
1
Step 635000
Ar -1.234681e+00 0.000000e+00 0.000000e+00
1
Step 636000
Ar -1.118747e+00 0.000000e+00 0.000000e+00
1
Step 637000
Ar -9.337414e-01 0.000000e+00 0.000000e+00
1
Step 638000
Ar -6.701988e-01 0.000000e+00 0.000000e+00
1
Step 639000
Ar -7.491490e-01 0.000000e+00 0.000000e+00
1
Step 640000
Ar -1.130690e+00 0.000000e+00 0.000000e+00
1
Step 641000
Ar -1.020694e+00 0.000000e+00 0.000000e+00
1
Step 642000
Ar -1.110238e+00 0.000000e+00 0.000000e+00
1
Step 643000
Ar -9.782869e-01 0.000000e+00 0.000000e+00
1
Step 644000
Ar -8.623610e-01 0.000000e+00 0.000000e+00
1
Step 645000
Ar -1.074405e+00 0.000000e+00 0.000000e+00
1
Step 646000
Ar -8.986193e-01 0.000000e+00 0.000000e+00
1
Step 647000
Ar -1.151852e+00 0.000000e+00 0.000000e+00
1
Step 648000
Ar -1.149560e+00 0.000000e+00 0.000000e+00
1
Step 649000
Ar -1.150254e+00 0.000000e+00 0.000000e+00
1
Step 650000
Ar -1.151570e+00 0.000000e+00 0.000000e+00
1
Step 651000