1
Step 120000
Ar 9.273702e-01 0.000000e+00 0.000000e+00
1
Step 121000
Ar 9.507859e-01 0.000000e+00 0.000000e+00
1
Step 122000
Ar 7.525820e-01 0.000000e+00 0.000000e+00
1
Step 123000
Ar 9.457531e-01 0.000000e+00 0.000000e+00
1
Step 124000
Ar 1.079834e+00 0.000000e+00 0.000000e+00
1
Step 125000
Ar 1.159231e+00 0.000000e+00 0.000000e+00
1
Step 126000
Ar 1.104216e+00 0.000000e+00 0.000000e+00
1
Step 127000
Ar 8.807505e-01 0.000000e+00 0.000000e+00
1
Step 128000
Ar 9.718486e-01 0.000000e+00 0.000000e+00
1
Step 129000
Ar 1.275502e+00 0.000000e+00 0.000000e+00
1
Step 130000
Ar 1.055294e+00 0.000000e+00 0.000000e+00
1
Step 131000
Ar 9.337828e-01 0.000000e+00 0.000000e+00
1
Step 132000
Ar 7.442061e-01 0.000000e+00 0.000000e+00
1
Step 133000
Ar 1.146307e+00 0.000000e+00 0.000000e+00
1
Step 134000
Ar 8.858249e-01 0.000000e+00 0.000000e+00
1
Step 135000
Ar 1.081599e+00 0.000000e+00 0.000000e+00
1
Step 136000
Ar 1.103881e+00 0.000000e+00 0.000000e+00
1
Step 137000
Ar 1.086837e+00 0.000000e+00 0.000000e+00
1
Step 138000
Ar 9.749668e-01 0.000000e+00 0.000000e+00
1
Step 139000
Ar 1.100092e+00 0.000000e+00 0.000000e+00
1
Step 140000
Ar 7.699670e-01 0.000000e+00 0.000000e+00
1
Step 141000
Ar 1.055422e+00 0.000000e+00 0.000000e+00
1
Step 142000
Ar 9.836734e-01 0.000000e+00 0.000000e+00
1
Step 143000
Ar 1.193881e+00 0.000000e+00 0.000000e+00
1
Step 144000
Ar 9.649845e-01 0.000000e+00 0.000000e+00
1
Step 145000
Ar 9.770495e-01 0.000000e+00 0.000000e+00
1
Step 146000
Ar 8.035719e-01 0.000000e+00 0.000000e+00
1
Step 147000
Ar 8.528920e-01 0.000000e+00 0.000000e+00
1
Step 148000
Ar 1.006085e+00 0.000000e+00 0.000000e+00
1
Step 149000
Ar 9.034047e-01 0.000000e+00 0.000000e+00
1
Step 150000
Ar 1.065191e+00 0.000000e+00 0.000000e+00
1
Step 151000
Ar 1.001423e+00 0.000000e+00 0.000000e+00
1
Step 152000
Ar 1.180478e+00 0.000000e+00 0.000000e+00
1
Step 153000
Ar 7.328934e-01 0.000000e+00 0.000000e+00
1
Step 154000
Ar 9.158565e-01 0.000000e+00 0.000000e+00
1
Step 155000
Ar 7.467894e-01 0.000000e+00 0.000000e+00
1
Step 156000
Ar 1.222559e+00 0.000000e+00 0.000000e+00
1
Step 157000
Ar 1.075738e+00 0.000000e+00 0.000000e+00
1
Step 158000
Ar 8.383106e-01 0.000000e+00 0.000000e+00
1
Step 159000
Ar 1.089520e+00 0.000000e+00 0.000000e+00
1
Step 160000
Ar 8.824064e-01 0.000000e+00 0.000000e+00
1
Step 161000
Ar 1.018662e+00 0.000000e+00 0.000000e+00
1
Step 162000
Ar 9.984295e-01 0.000000e+00 0.000000e+00
1
Step 163000
Ar 1.176729e+00 0.000000e+00 0.000000e+00
1
Step 164000
Ar 1.082714e+00 0.000000e+00 0.000000e+00
1
Step 165000
Ar 9.751216e-01 0.000000e+00 0.000000e+00
1
Step 166000
Ar 9.020626e-01 0.000000e+00 0.000000e+00
1
Step 167000
Ar 1.157898e+00 0.000000e+00 0.000000e+00
1
Step 168000
Ar 8.554211e-01 0.000000e+00 0.000000e+00
1
Step 169000
Ar 1.057333e+00 0.000000e+00 0.000000e+00
1
Step 170000
Ar 9.254717e-01 0.000000e+00 0.000000e+00
1
Step 171000
Ar 1.032959e+00 0.000000e+00 0.000000e+00
1
Step 172000
Ar 8.796092e-01 0.000000e+00 0.000000e+00
1
Step 173000
Ar 9.609253e-01 0.000000e+00 0.000000e+00
1
Step 174000
Ar 1.020815e+00 0.000000e+00 0.000000e+00
1
Step 175000
Ar 9.387473e-01 0.000000e+00 0.000000e+00
1
Step 176000
Ar 1.051710e+00 0.000000e+00 0.000000e+00
1
Step 177000
Ar 9.356283e-01 0.000000e+00 0.000000e+00
1
Step 178000
Ar 1.080714e+00 0.000000e+00 0.000000e+00
1
Step 179000
Ar 8.243689e-01 0.000000e+00 0.000000e+00
1
Step 180000
Ar 1.021519e+00 0.000000e+00 0.000000e+00
1
Step 181000
Ar 1.018745e+00 0.000000e+00 0.000000e+00
1
Step 182000
Ar 8.709662e-01 0.000000e+00 0.000000e+00
1
Step 183000
Ar 8.706970e-01 0.000000e+00 0.000000e+00
1
Step 184000
Ar 1.185928e+00 0.000000e+00 0.000000e+00
1
Step 185000
Ar 1.020570e+00 0.000000e+00 0.000000e+00
1
Step 186000
Ar 1.282652e+00 0.000000e+00 0.000000e+00
1
Step 187000
Ar 8.926595e-01 0.000000e+00 0.000000e+00
1
Step 188000
Ar 9.151571e-01 0.000000e+00 0.000000e+00
1
Step 189000
Ar 1.023405e+00 0.000000e+00 0.000000e+00
1
Step 190000
Ar 9.621708e-01 0.000000e+00 0.000000e+00
1
Step 191000
Ar 9.171722e-01 0.000000e+00 0.000000e+00
1
Step 192000
Ar 1.110149e+00 0.000000e+00 0.000000e+00
1
Step 193000
Ar 9.452349e-01 0.000000e+00 0.000000e+00
1
Step 194000
Ar 1.168639e+00 0.000000e+00 0.000000e+00
1
Step 195000
Ar 1.171498e+00 0.000000e+00 0.000000e+00
1
Step 196000
Ar 9.742722e-01 0.000000e+00 0.000000e+00
1
Step 197000
Ar 9.538686e-01 0.000000e+00 0.000000e+00
1
Step 198000
Ar 9.906712e-01 0.000000e+00 0.000000e+00
1
Step 199000
Ar 9.031494e-01 0.000000e+00 0.000000e+00
1
Step 200000
Ar 8.689183e-01 0.000000e+00 0.000000e+00
1
Step 201000
Ar 1.117375e+00 0.000000e+00 0.000000e+00
1
Step 202000
Ar 1.005624e+00 0.000000e+00 0.000000e+00
1
Step 203000
Ar 1.119785e+00 0.000000e+00 0.000000e+00
1
Step 204000
Ar 1.055817e+00 0.000000e+00 0.000000e+00
1
Step 205000
Ar 1.084938e+00 0.000000e+00 0.000000e+00
1
Step 206000
Ar 9.632812e-01 0.000000e+00 0.000000e+00
1
Step 207000
Ar 1.160257e+00 0.000000e+00 0.000000e+00
1
Step 208000
Ar 9.868066e-01 0.000000e+00 0.000000e+00
1
Step 209000
Ar 9.624235e-01 0.000000e+00 0.000000e+00
1
Step 210000
Ar 9.589268e-01 0.000000e+00 0.000000e+00
1
Step 211000
Ar 1.228443e+00 0.000000e+00 0.000000e+00
1
Step 212000
Ar 1.168835e+00 0.000000e+00 0.000000e+00
1
Step 213000
Ar 1.003120e+00 0.000000e+00 0.000000e+00
1
Step 214000
Ar 1.156343e+00 0.000000e+00 0.000000e+00
1
Step 215000
Ar 1.117813e+00 0.000000e+00 0.000000e+00
1
Step 216000
Ar 1.023779e+00 0.000000e+00 0.000000e+00
1
Step 217000
Ar 8.175337e-01 0.000000e+00 0.000000e+00
1
Step 218000
Ar 1.070872e+00 0.000000e+00 0.000000e+00
1
Step 219000
Ar 8.176291e-01 0.000000e+00 0.000000e+00
1
Step 220000
Ar 9.224677e-01 0.000000e+00 0.000000e+00
1
Step 221000
Ar 1.144423e+00 0.000000e+00 0.000000e+00
1
Step 222000
Ar 1.240645e+00 0.000000e+00 0.000000e+00
1
Step 223000
Ar 9.114790e-01 0.000000e+00 0.000000e+00
1
Step 224000
Ar 8.209084e-01 0.000000e+00 0.000000e+00
1
Step 225000
Ar 1.080815e+00 0.000000e+00 0.000000e+00
1
Step 226000
Ar 1.043526e+00 0.000000e+00 0.000000e+00
1
Step 227000
Ar 9.733228e-01 0.000000e+00 0.000000e+00
1
Step 228000
Ar 9.949730e-01 0.000000e+00 0.000000e+00
1
Step 229000
Ar 1.054048e+00 0.000000e+00 0.000000e+00
1
Step 230000
Ar 8.981916e-01 0.000000e+00 0.000000e+00
1
Step 231000
Ar 1.130443e+00 0.000000e+00 0.000000e+00
1
Step 232000
Ar 1.043141e+00 0.000000e+00 0.000000e+00
1
Step 233000
Ar 9.885204e-01 0.000000e+00 0.000000e+00
1
Step 234000
Ar 9.573774e-01 0.000000e+00 0.000000e+00
1
Step 235000
Ar 9.061253e-01 0.000000e+00 0.000000e+00
1
Step 236000
Ar 1.089209e+00 0.000000e+00 0.000000e+00
1
Step 237000
Ar 6.725211e-01 0.000000e+00 0.000000e+00
1
Step 238000
Ar 8.257938e-01 0.000000e+00 0.000000e+00
1
Step 239000
Ar 1.025866e+00 0.000000e+00 0.000000e+00
1
Step 240000
Ar 8.349717e-01 0.000000e+00 0.000000e+00
1
Step 241000
Ar 1.015657e+00 0.000000e+00 0.000000e+00
1
Step 242000
Ar 9.876992e-01 0.000000e+00 0.000000e+00
1
Step 243000
Ar 1.080879e+00 0.000000e+00 0.000000e+00
1
Step 244000
Ar 1.126676e+00 0.000000e+00 0.000000e+00
1
Step 245000
Ar 9.747532e-01 0.000000e+00 0.000000e+00
1
Step 246000
Ar 1.126527e+00 0.000000e+00 0.000000e+00
1
Step 247000
Ar 1.066745e+00 0.000000e+00 0.000000e+00
1
Step 248000
Ar 1.140066e+00 0.000000e+00 0.000000e+00
1
Step 249000
Ar 1.033556e+00 0.000000e+00 0.000000e+00
1
Step 250000
Ar 9.417018e-01 0.000000e+00 0.000000e+00
1
Step 251000
Ar 1.158468e+00 0.000000e+00 0.000000e+00
1
Step 252000
Ar 9.962121e-01 0.000000e+00 0.000000e+00
1
Step 253000
Ar 1.096160e+00 0.000000e+00 0.000000e+00
1
Step 254000
Ar 1.038459e+00 0.000000e+00 0.000000e+00
1
Step 255000
Ar 8.958904e-01 0.000000e+00 0.000000e+00
1
Step 256000
Ar 9.641478e-01 0.000000e+00 0.000000e+00
1
Step 257000
Ar 1.074248e+00 0.000000e+00 0.000000e+00
1
Step 258000
Ar 9.545568e-01 0.000000e+00 0.000000e+00
1
Step 259000
Ar 9.665433e-01 0.000000e+00 0.000000e+00
1
Step 260000
Ar 1.056965e+00 0.000000e+00 0.000000e+00
1
Step 261000
Ar 9.280184e-01 0.000000e+00 0.000000e+00
1
Step 262000
Ar 9.547976e-01 0.000000e+00 0.000000e+00
1
Step 263000
Ar 9.718144e-01 0.000000e+00 0.000000e+00
1
Step 264000
Ar 9.979933e-01 0.000000e+00 0.000000e+00
1
Step 265000
Ar 1.013629e+00 0.000000e+00 0.000000e+00
1
Step 266000
Ar 7.819215e-01 0.000000e+00 0.000000e+00
1
Step 267000
Ar 1.036075e+00 0.000000e+00 0.000000e+00
1
Step 268000
Ar 1.208250e+00 0.000000e+00 0.000000e+00
1
Step 269000
Ar 1.097131e+00 0.000000e+00 0.000000e+00
1
Step 270000
Ar 9.786516e-01 0.000000e+00 0.000000e+00
1
Step 271000
Ar 9.711426e-01 0.000000e+00 0.000000e+00
1
Step 272000
Ar 1.154987e+00 0.000000e+00 0.000000e+00
1
Step 273000
Ar 1.146203e+00 0.000000e+00 0.000000e+00
1
Step 274000
Ar 9.871878e-01 0.000000e+00 0.000000e+00
1
Step 275000
Ar 9.979008e-01 0.000000e+00 0.000000e+00
1
Step 276000
Ar 1.029567e+00 0.000000e+00 0.000000e+00
1
Step 277000
Ar 1.229998e+00 0.000000e+00 0.000000e+00
1
Step 278000
Ar 9.316360e-01 0.000000e+00 0.000000e+00
1
Step 279000
Ar 7.583419e-01 0.000000e+00 0.000000e+00
1
Step 280000
Ar 9.880902e-01 0.000000e+00 0.000000e+00
1
Step 281000
Ar 1.068934e+00 0.000000e+00 0.000000e+00
1
Step 282000
Ar 9.872170e-01 0.000000e+00 0.000000e+00
1
Step 283000
Ar 1.060979e+00 0.000000e+00 0.000000e+00
1
Step 284000
Ar 1.013958e+00 0.000000e+00 0.000000e+00
1
Step 285000
Ar 9.997682e-01 0.000000e+00 0.000000e+00
1
Step 286000
Ar 1.011487e+00 0.000000e+00 0.000000e+00
1
Step 287000
Ar 9.593769e-01 0.000000e+00 0.000000e+00
1
Step 288000
Ar 8.143638e-01 0.000000e+00 0.000000e+00
1
Step 289000
Ar 8.843007e-01 0.000000e+00 0.000000e+00
1
Step 290000
Ar 1.022910e+00 0.000000e+00 0.000000e+00
1
Step 291000
Ar 1.043845e+00 0.000000e+00 0.000000e+00
1
Step 292000
Ar 9.094445e-01 0.000000e+00 0.000000e+00
1
Step 293000
Ar 8.322458e-01 0.000000e+00 0.000000e+00
1
Step 294000
Ar 1.000711e+00 0.000000e+00 0.000000e+00
1
Step 295000
Ar 1.024245e+00 0.000000e+00 0.000000e+00
1
Step 296000
Ar 1.045471e+00 0.000000e+00 0.000000e+00
1
Step 297000
Ar 1.128637e+00 0.000000e+00 0.000000e+00
1
Step 298000
Ar 1.064549e+00 0.000000e+00 0.000000e+00
1
Step 299000
Ar 8.849883e-01 0.000000e+00 0.000000e+00
1
Step 300000
Ar 8.647327e-01 0.000000e+00 0.000000e+00
1
Step 301000
Ar 8.102034e-01 0.000000e+00 0.000000e+00
1
Step 302000
Ar 1.186226e+00 0.000000e+00 0.000000e+00
1
Step 303000
Ar 9.946213e-01 0.000000e+00 0.000000e+00
1
Step 304000
Ar 1.077969e+00 0.000000e+00 0.000000e+00
1
Step 305000
Ar 9.511977e-01 0.000000e+00 0.000000e+00
1
Step 306000
Ar 9.684513e-01 0.000000e+00 0.000000e+00
1
Step 307000
Ar 9.473209e-01 0.000000e+00 0.000000e+00
1
Step 308000
Ar 7.755755e-01 0.000000e+00 0.000000e+00
1
Step 309000
Ar 9.507625e-01 0.000000e+00 0.000000e+00
1
Step 310000
Ar 8.941830e-01 0.000000e+00 0.000000e+00
1
Step 311000
Ar 9.899140e-01 0.000000e+00 0.000000e+00
1
Step 312000
Ar 8.418102e-01 0.000000e+00 0.000000e+00
1
Step 313000
Ar 9.069593e-01 0.000000e+00 0.000000e+00
1
Step 314000
Ar 9.702048e-01 0.000000e+00 0.000000e+00
1
Step 315000
Ar 8.447681e-01 0.000000e+00 0.000000e+00
1
Step 316000
Ar 1.007190e+00 0.000000e+00 0.000000e+00
1
Step 317000
Ar 9.130622e-01 0.000000e+00 0.000000e+00
1
Step 318000
Ar 1.011760e+00 0.000000e+00 0.000000e+00
1
Step 319000
Ar 1.046542e+00 0.000000e+00 0.000000e+00
1
Step 320000
Ar 1.105217e+00 0.000000e+00 0.000000e+00
1
Step 321000
Ar 1.054543e+00 0.000000e+00 0.000000e+00
1
Step 322000
Ar 1.038356e+00 0.000000e+00 0.000000e+00
1
Step 323000
Ar 9.680953e-01 0.000000e+00 0.000000e+00
1
Step 324000
Ar 9.796332e-01 0.000000e+00 0.000000e+00
1
Step 325000
Ar 9.006629e-01 0.000000e+00 0.000000e+00
1
Step 326000
Ar 9.068681e-01 0.000000e+00 0.000000e+00
1
Step 327000
Ar 1.208756e+00 0.000000e+00 0.000000e+00
1
Step 328000
Ar 7.968681e-01 0.000000e+00 0.000000e+00
1
Step 329000
Ar 1.192600e+00 0.000000e+00 0.000000e+00
1
Step 330000
Ar 9.558674e-01 0.000000e+00 0.000000e+00
1
Step 331000
Ar 9.502409e-01 0.000000e+00 0.000000e+00
1
Step 332000
Ar 9.157662e-01 0.000000e+00 0.000000e+00
1
Step 333000
Ar 9.882254e-01 0.000000e+00 0.000000e+00
1
Step 334000
Ar 9.778938e-01 0.000000e+00 0.000000e+00
1
Step 335000
Ar 7.987202e-01 0.000000e+00 0.000000e+00
1
Step 336000
Ar 9.155475e-01 0.000000e+00 0.000000e+00
1
Step 337000
Ar 8.311585e-01 0.000000e+00 0.000000e+00
1
Step 338000
Ar 1.078253e+00 0.000000e+00 0.000000e+00
1
Step 339000
Ar 9.036349e-01 0.000000e+00 0.000000e+00
1
Step 340000
Ar 1.074210e+00 0.000000e+00 0.000000e+00
1
Step 341000
Ar 1.103679e+00 0.000000e+00 0.000000e+00
1
Step 342000
Ar 9.150087e-01 0.000000e+00 0.000000e+00
1
Step 343000
Ar 1.087668e+00 0.000000e+00 0.000000e+00
1
Step 344000
Ar 1.006948e+00 0.000000e+00 0.000000e+00
1
Step 345000
Ar 9.500846e-01 0.000000e+00 0.000000e+00
1
Step 346000
Ar 9.471312e-01 0.000000e+00 0.000000e+00
1
Step 347000
Ar 9.021558e-01 0.000000e+00 0.000000e+00
1
Step 348000
Ar 9.884277e-01 0.000000e+00 0.000000e+00
1
Step 349000
Ar 9.867707e-01 0.000000e+00 0.000000e+00
1
Step 350000
Ar 8.462498e-01 0.000000e+00 0.000000e+00
1
Step 351000
Ar 9.752699e-01 0.000000e+00 0.000000e+00
1
Step 352000
Ar 9.590925e-01 0.000000e+00 0.000000e+00
1
Step 353000
Ar 7.691116e-01 0.000000e+00 0.000000e+00
1
Step 354000
Ar 1.004514e+00 0.000000e+00 0.000000e+00
1
Step 355000
Ar 9.406112e-01 0.000000e+00 0.000000e+00
1
Step 356000
Ar 1.020631e+00 0.000000e+00 0.000000e+00
1
Step 357000
Ar 1.066612e+00 0.000000e+00 0.000000e+00
1
Step 358000
Ar 1.022903e+00 0.000000e+00 0.000000e+00
1
Step 359000
Ar 8.311534e-01 0.000000e+00 0.000000e+00
1
Step 360000
Ar 9.324932e-01 0.000000e+00 0.000000e+00
1
Step 361000
Ar 1.108113e+00 0.000000e+00 0.000000e+00
1
Step 362000
Ar 9.284094e-01 0.000000e+00 0.000000e+00
1
Step 363000
Ar 8.852143e-01 0.000000e+00 0.000000e+00
1
Step 364000
Ar 1.090830e+00 0.000000e+00 0.000000e+00
1
Step 365000
Ar 1.086472e+00 0.000000e+00 0.000000e+00
1
Step 366000
Ar 9.113016e-01 0.000000e+00 0.000000e+00
1
Step 367000
Ar 9.950439e-01 0.000000e+00 0.000000e+00
1
Step 368000
Ar 9.662900e-01 0.000000e+00 0.000000e+00
1
Step 369000
Ar 1.096614e+00 0.000000e+00 0.000000e+00
1
Step 370000
Ar 1.121380e+00 0.000000e+00 0.000000e+00
1
Step 371000
Ar 9.814248e-01 0.000000e+00 0.000000e+00
1
Step 372000
Ar 1.059571e+00 0.000000e+00 0.000000e+00
1
Step 373000
Ar 1.011159e+00 0.000000e+00 0.000000e+00
1
Step 374000
Ar 9.117253e-01 0.000000e+00 0.000000e+00
1
Step 375000
Ar 7.677666e-01 0.000000e+00 0.000000e+00
1
Step 376000
Ar 9.884769e-01 0.000000e+00 0.000000e+00
1
Step 377000
Ar 8.086606e-01 0.000000e+00 0.000000e+00
1
Step 378000
Ar 8.336200e-01 0.000000e+00 0.000000e+00
1
Step 379000
Ar 1.186189e+00 0.000000e+00 0.000000e+00
1
Step 380000
Ar 8.918414e-01 0.000000e+00 0.000000e+00
1
Step 381000
Ar 1.068780e+00 0.000000e+00 0.000000e+00
1
Step 382000
Ar 1.015445e+00 0.000000e+00 0.000000e+00
1
Step 383000
Ar 9.783142e-01 0.000000e+00 0.000000e+00
1
Step 384000
Ar 9.652660e-01 0.000000e+00 0.000000e+00
1
Step 385000
Ar 9.428915e-01 0.000000e+00 0.000000e+00
1
Step 386000
Ar 1.183503e+00 0.000000e+00 0.000000e+00
1
Step 387000
Ar 8.642118e-01 0.000000e+00 0.000000e+00
1
Step 388000
Ar 1.058066e+00 0.000000e+00 0.000000e+00
1
Step 389000
Ar 9.881291e-01 0.000000e+00 0.000000e+00
1
Step 390000
Ar 8.591949e-01 0.000000e+00 0.000000e+00
1
Step 391000
Ar 9.068337e-01 0.000000e+00 0.000000e+00
1
Step 392000
Ar 6.433418e-01 0.000000e+00 0.000000e+00
1
Step 393000
Ar 1.041621e+00 0.000000e+00 0.000000e+00
1
Step 394000
Ar 1.033035e+00 0.000000e+00 0.000000e+00
1
Step 395000
Ar 1.112690e+00 0.000000e+00 0.000000e+00
1
Step 396000
Ar 9.150037e-01 0.000000e+00 0.000000e+00
1
Step 397000
Ar 1.210657e+00 0.000000e+00 0.000000e+00
1
Step 398000
Ar 8.157881e-01 0.000000e+00 0.000000e+00
1
Step 399000
Ar 1.074772e+00 0.000000e+00 0.000000e+00
1
Step 400000
Ar 1.198060e+00 0.000000e+00 0.000000e+00
1
Step 401000
Ar 8.921156e-01 0.000000e+00 0.000000e+00
1
Step 402000
Ar 8.311068e-01 0.000000e+00 0.000000e+00
1
Step 403000
Ar 9.682458e-01 0.000000e+00 0.000000e+00
1
Step 404000
Ar 8.494269e-01 0.000000e+00 0.000000e+00
1
Step 405000
Ar 1.296386e+00 0.000000e+00 0.000000e+00
1
Step 406000
Ar 9.174570e-01 0.000000e+00 0.000000e+00
1
Step 407000
Ar 1.038623e+00 0.000000e+00 0.000000e+00
1
Step 408000
Ar 1.265098e+00 0.000000e+00 0.000000e+00
1
Step 409000
Ar 9.871319e-01 0.000000e+00 0.000000e+00
1
Step 410000
Ar 1.002020e+00 0.000000e+00 0.000000e+00
1
Step 411000
Ar 9.385513e-01 0.000000e+00 0.000000e+00
1
Step 412000
Ar 9.529554e-01 0.000000e+00 0.000000e+00
1
Step 413000
Ar 1.062953e+00 0.000000e+00 0.000000e+00
1
Step 414000
Ar 1.003656e+00 0.000000e+00 0.000000e+00
1
Step 415000
Ar 9.350588e-01 0.000000e+00 0.000000e+00
1
Step 416000
Ar 1.019786e+00 0.000000e+00 0.000000e+00
1
Step 417000
Ar 9.153289e-01 0.000000e+00 0.000000e+00
1
Step 418000
Ar 1.000348e+00 0.000000e+00 0.000000e+00
1
Step 419000
Ar 9.443186e-01 0.000000e+00 0.000000e+00
1
Step 420000
Ar 9.874671e-01 0.000000e+00 0.000000e+00
1
Step 421000
Ar 1.039167e+00 0.000000e+00 0.000000e+00
1
Step 422000
Ar 9.287059e-01 0.000000e+00 0.000000e+00
1
Step 423000
Ar 9.034810e-01 0.000000e+00 0.000000e+00
1
Step 424000
Ar 1.001860e+00 0.000000e+00 0.000000e+00
1
Step 425000
Ar 1.063447e+00 0.000000e+00 0.000000e+00
1
Step 426000
Ar 9.394088e-01 0.000000e+00 0.000000e+00
1
Step 427000
Ar 9.870547e-01 0.000000e+00 0.000000e+00
1
Step 428000
Ar 9.892418e-01 0.000000e+00 0.000000e+00
1
Step 429000
Ar 1.014052e+00 0.000000e+00 0.000000e+00
1
Step 430000
Ar 9.581017e-01 0.000000e+00 0.000000e+00
1
Step 431000
Ar 1.044930e+00 0.000000e+00 0.000000e+00
1
Step 432000
Ar 1.053190e+00 0.000000e+00 0.000000e+00
1
Step 433000
Ar 1.020481e+00 0.000000e+00 0.000000e+00
1
Step 434000
Ar 1.076758e+00 0.000000e+00 0.000000e+00
1
Step 435000
Ar 1.145764e+00 0.000000e+00 0.000000e+00
1
Step 436000
Ar 1.083828e+00 0.000000e+00 0.000000e+00
1
Step 437000
Ar 1.196238e+00 0.000000e+00 0.000000e+00
1
Step 438000
Ar 8.878045e-01 0.000000e+00 0.000000e+00
1
Step 439000
Ar 1.032413e+00 0.000000e+00 0.000000e+00
1
Step 440000
Ar 9.055876e-01 0.000000e+00 0.000000e+00
1
Step 441000
Ar 1.214956e+00 0.000000e+00 0.000000e+00
1
Step 442000
Ar 9.226438e-01 0.000000e+00 0.000000e+00
1
Step 443000
Ar 9.908498e-01 0.000000e+00 0.000000e+00
1
Step 444000
Ar 8.587677e-01 0.000000e+00 0.000000e+00
1
Step 445000
Ar 9.990845e-01 0.000000e+00 0.000000e+00
1
Step 446000
Ar 1.041330e+00 0.000000e+00 0.000000e+00
1
Step 447000
Ar 8.559582e-01 0.000000e+00 0.000000e+00
1
Step 448000
Ar 7.790317e-01 0.000000e+00 0.000000e+00
1
Step 449000
Ar 1.061589e+00 0.000000e+00 0.000000e+00
1
Step 450000
Ar 1.045486e+00 0.000000e+00 0.000000e+00
1
Step 451000
Ar 1.051581e+00 0.000000e+00 0.000000e+00
1
Step 452000
Ar 1.164368e+00 0.000000e+00 0.000000e+00
1
Step 453000
Ar 8.843362e-01 0.000000e+00 0.000000e+00
1
Step 454000
Ar 9.643251e-01 0.000000e+00 0.000000e+00
1
Step 455000
Ar 1.089065e+00 0.000000e+00 0.000000e+00
1
Step 456000
Ar 1.017267e+00 0.000000e+00 0.000000e+00
1
Step 457000
Ar 9.670774e-01 0.000000e+00 0.000000e+00
1
Step 458000
Ar 1.052592e+00 0.000000e+00 0.000000e+00
1
Step 459000
Ar 1.075529e+00 0.000000e+00 0.000000e+00
1
Step 460000
Ar 9.477637e-01 0.000000e+00 0.000000e+00
1
Step 461000
Ar 9.885544e-01 0.000000e+00 0.000000e+00
1
Step 462000
Ar 9.943705e-01 0.000000e+00 0.000000e+00
1
Step 463000
Ar 1.078715e+00 0.000000e+00 0.000000e+00
1
Step 464000
Ar 9.141975e-01 0.000000e+00 0.000000e+00
1
Step 465000
Ar 7.159070e-01 0.000000e+00 0.000000e+00
1
Step 466000
Ar 9.140266e-01 0.000000e+00 0.000000e+00
1
Step 467000
Ar 8.316425e-01 0.000000e+00 0.000000e+00
1
Step 468000
Ar 1.057322e+00 0.000000e+00 0.000000e+00
1
Step 469000
Ar 1.023201e+00 0.000000e+00 0.000000e+00
1
Step 470000
Ar 9.776663e-01 0.000000e+00 0.000000e+00
1
Step 471000
Ar 1.032150e+00 0.000000e+00 0.000000e+00
1
Step 472000
Ar 9.065466e-01 0.000000e+00 0.000000e+00
1
Step 473000
Ar 8.802032e-01 0.000000e+00 0.000000e+00
1
Step 474000
Ar 9.001858e-01 0.000000e+00 0.000000e+00
1
Step 475000
Ar 9.002834e-01 0.000000e+00 0.000000e+00
1
Step 476000
Ar 1.074523e+00 0.000000e+00 0.000000e+00
1
Step 477000
Ar 1.007321e+00 0.000000e+00 0.000000e+00
1
Step 478000
Ar 1.001897e+00 0.000000e+00 0.000000e+00
1
Step 479000
Ar 1.013937e+00 0.000000e+00 0.000000e+00
1
Step 480000
Ar 9.478020e-01 0.000000e+00 0.000000e+00
1
Step 481000
Ar 9.318270e-01 0.000000e+00 0.000000e+00
1
Step 482000
Ar 9.281750e-01 0.000000e+00 0.000000e+00
1
Step 483000
Ar 9.794550e-01 0.000000e+00 0.000000e+00
1
Step 484000
Ar 1.121006e+00 0.000000e+00 0.000000e+00
1
Step 485000
Ar 1.108367e+00 0.000000e+00 0.000000e+00
1
Step 486000
Ar 9.961625e-01 0.000000e+00 0.000000e+00
1
Step 487000
Ar 7.484754e-01 0.000000e+00 0.000000e+00
1
Step 488000
Ar 1.100110e+00 0.000000e+00 0.000000e+00
1
Step 489000
Ar 1.171067e+00 0.000000e+00 0.000000e+00
1
Step 490000
Ar 7.003283e-01 0.000000e+00 0.000000e+00
1
Step 491000
Ar 1.033201e+00 0.000000e+00 0.000000e+00
1
Step 492000
Ar 1.133274e+00 0.000000e+00 0.000000e+00
1
Step 493000
Ar 8.307480e-01 0.000000e+00 0.000000e+00
1
Step 494000
Ar 9.721583e-01 0.000000e+00 0.000000e+00
1
Step 495000
Ar 1.107403e+00 0.000000e+00 0.000000e+00
1
Step 496000
Ar 9.358650e-01 0.000000e+00 0.000000e+00
1
Step 497000
Ar 1.045942e+00 0.000000e+00 0.000000e+00
1
Step 498000
Ar 8.768946e-01 0.000000e+00 0.000000e+00
1
Step 499000
Ar 8.674582e-01 0.000000e+00 0.000000e+00
1
Step 500000
Ar 1.045803e+00 0.000000e+00 0.000000e+00
1
Step 501000
Ar 1.077727e+00 0.000000e+00 0.000000e+00
1
Step 502000
Ar 9.110615e-01 0.000000e+00 0.000000e+00
1
Step 503000
Ar 8.201298e-01 0.000000e+00 0.000000e+00
1
Step 504000
Ar 9.037999e-01 0.000000e+00 0.000000e+00
1
Step 505000
Ar 1.057750e+00 0.000000e+00 0.000000e+00
1
Step 506000
Ar 7.616342e-01 0.000000e+00 0.000000e+00
1
Step 507000
Ar 9.181144e-01 0.000000e+00 0.000000e+00
1
Step 508000
Ar 1.042269e+00 0.000000e+00 0.000000e+00
1
Step 509000
Ar 1.085717e+00 0.000000e+00 0.000000e+00
1
Step 510000
Ar 1.194748e+00 0.000000e+00 0.000000e+00
1
Step 511000
Ar 8.670927e-01 0.000000e+00 0.000000e+00
1
Step 512000
Ar 9.501305e-01 0.000000e+00 0.000000e+00
1
Step 513000
Ar 9.938876e-01 0.000000e+00 0.000000e+00
1
Step 514000
Ar 9.977579e-01 0.000000e+00 0.000000e+00
1
Step 515000
Ar 1.127501e+00 0.000000e+00 0.000000e+00
1
Step 516000
Ar 9.457990e-01 0.000000e+00 0.000000e+00
1
Step 517000
Ar 9.962592e-01 0.000000e+00 0.000000e+00
1
Step 518000
Ar 1.138495e+00 0.000000e+00 0.000000e+00
1
Step 519000
Ar 9.785990e-01 0.000000e+00 0.000000e+00
1
Step 520000
Ar 8.233782e-01 0.000000e+00 0.000000e+00
1
Step 521000
Ar 9.084124e-01 0.000000e+00 0.000000e+00
1
Step 522000
Ar 9.470772e-01 0.000000e+00 0.000000e+00
1
Step 523000
Ar 1.071480e+00 0.000000e+00 0.000000e+00
1
Step 524000
Ar 9.488675e-01 0.000000e+00 0.000000e+00
1
Step 525000
Ar 1.050254e+00 0.000000e+00 0.000000e+00
1
Step 526000
Ar 9.600235e-01 0.000000e+00 0.000000e+00
1
Step 527000
Ar 7.319488e-01 0.000000e+00 0.000000e+00
1
Step 528000
Ar 8.425170e-01 0.000000e+00 0.000000e+00
1
Step 529000
Ar 1.091755e+00 0.000000e+00 0.000000e+00
1
Step 530000
Ar 1.039100e+00 0.000000e+00 0.000000e+00
1
Step 531000
Ar 1.051191e+00 0.000000e+00 0.000000e+00
1
Step 532000
Ar 9.833316e-01 0.000000e+00 0.000000e+00
1
Step 533000
Ar 8.992751e-01 0.000000e+00 0.000000e+00
1
Step 534000
Ar 1.104218e+00 0.000000e+00 0.000000e+00
1
Step 535000
Ar 1.077560e+00 0.000000e+00 0.000000e+00
1
Step 536000
Ar 1.022436e+00 0.000000e+00 0.000000e+00
1
Step 537000
Ar 1.144529e+00 0.000000e+00 0.000000e+00
1
Step 538000
Ar 1.030280e+00 0.000000e+00 0.000000e+00
1
Step 539000
Ar 1.127910e+00 0.000000e+00 0.000000e+00
1
Step 540000
Ar 1.137681e+00 0.000000e+00 0.000000e+00
1
Step 541000
Ar 9.990237e-01 0.000000e+00 0.000000e+00
1
Step 542000
Ar 1.029269e+00 0.000000e+00 0.000000e+00
1
Step 543000
Ar 7.511066e-01 0.000000e+00 0.000000e+00
1
Step 544000
Ar 1.032621e+00 0.000000e+00 0.000000e+00
1
Step 545000
Ar 1.040236e+00 0.000000e+00 0.000000e+00
1
Step 546000
Ar 1.153440e+00 0.000000e+00 0.000000e+00
1
Step 547000
Ar 1.081000e+00 0.000000e+00 0.000000e+00
1
Step 548000
Ar 1.082144e+00 0.000000e+00 0.000000e+00
1
Step 549000
Ar 8.595635e-01 0.000000e+00 0.000000e+00
1
Step 550000
Ar 1.103914e+00 0.000000e+00 0.000000e+00
1
Step 551000
Ar 1.057570e+00 0.000000e+00 0.000000e+00
1
Step 552000
Ar 9.979736e-01 0.000000e+00 0.000000e+00
1
Step 553000
Ar 9.896885e-01 0.000000e+00 0.000000e+00
1
Step 554000
Ar 9.199960e-01 0.000000e+00 0.000000e+00
1
Step 555000
Ar 1.087981e+00 0.000000e+00 0.000000e+00
1
Step 556000
Ar 1.013760e+00 0.000000e+00 0.000000e+00
1
Step 557000
Ar 1.125086e+00 0.000000e+00 0.000000e+00
1
Step 558000
Ar 7.905908e-01 0.000000e+00 0.000000e+00
1
Step 559000
Ar 1.009959e+00 0.000000e+00 0.000000e+00
1
Step 560000
Ar 1.100550e+00 0.000000e+00 0.000000e+00
1
Step 561000
Ar 9.191524e-01 0.000000e+00 0.000000e+00
1
Step 562000
Ar 1.015094e+00 0.000000e+00 0.000000e+00
1
Step 563000
Ar 1.086889e+00 0.000000e+00 0.000000e+00
1
Step 564000
Ar 1.021921e+00 0.000000e+00 0.000000e+00
1
Step 565000
Ar 1.002567e+00 0.000000e+00 0.000000e+00
1
Step 566000
Ar 9.573439e-01 0.000000e+00 0.000000e+00
1
Step 567000
Ar 9.250393e-01 0.000000e+00 0.000000e+00
1
Step 568000
Ar 1.154688e+00 0.000000e+00 0.000000e+00
1
Step 569000
Ar 8.787989e-01 0.000000e+00 0.000000e+00
1
Step 570000
Ar 8.668163e-01 0.000000e+00 0.000000e+00
1
Step 571000
Ar 1.186791e+00 0.000000e+00 0.000000e+00
1
Step 572000
Ar 1.310932e+00 0.000000e+00 0.000000e+00
1
Step 573000
Ar 1.075014e+00 0.000000e+00 0.000000e+00
1
Step 574000
Ar 8.110216e-01 0.000000e+00 0.000000e+00
1
Step 575000
Ar 1.039993e+00 0.000000e+00 0.000000e+00
1
Step 576000
Ar 1.164701e+00 0.000000e+00 0.000000e+00
1
Step 577000
Ar 9.756942e-01 0.000000e+00 0.000000e+00
1
Step 578000
Ar 1.016095e+00 0.000000e+00 0.000000e+00
1
Step 579000
Ar 1.135491e+00 0.000000e+00 0.000000e+00
1
Step 580000
Ar 7.551885e-01 0.000000e+00 0.000000e+00
1
Step 581000
Ar 1.234912e+00 0.000000e+00 0.000000e+00
1
Step 582000
Ar 1.102660e+00 0.000000e+00 0.000000e+00
1
Step 583000
Ar 1.174855e+00 0.000000e+00 0.000000e+00
1
Step 584000
Ar 1.090362e+00 0.000000e+00 0.000000e+00
1
Step 585000
Ar 9.805379e-01 0.000000e+00 0.000000e+00
1
Step 586000
Ar 8.062578e-01 0.000000e+00 0.000000e+00
1
Step 587000
Ar 1.188951e+00 0.000000e+00 0.000000e+00
1
Step 588000
Ar 1.123649e+00 0.000000e+00 0.000000e+00
1
Step 589000
Ar 9.397275e-01 0.000000e+00 0.000000e+00
1
Step 590000
Ar 9.504356e-01 0.000000e+00 0.000000e+00
1
Step 591000
Ar 1.069313e+00 0.000000e+00 0.000000e+00
1
Step 592000
Ar 1.037815e+00 0.000000e+00 0.000000e+00
1
Step 593000
Ar 1.068959e+00 0.000000e+00 0.000000e+00
1
Step 594000
Ar 1.088572e+00 0.000000e+00 0.000000e+00
1
Step 595000
Ar 7.701575e-01 0.000000e+00 0.000000e+00
1
Step 596000
Ar 9.590877e-01 0.000000e+00 0.000000e+00
1
Step 597000
Ar 1.055116e+00 0.000000e+00 0.000000e+00
1
Step 598000
Ar 1.029067e+00 0.000000e+00 0.000000e+00
1
Step 599000
Ar 9.043479e-01 0.000000e+00 0.000000e+00
1
Step 600000
Ar 9.981866e-01 0.000000e+00 0.000000e+00
1
Step 601000
Ar 9.972287e-01 0.000000e+00 0.000000e+00
1
Step 602000
Ar 1.071731e+00 0.000000e+00 0.000000e+00
1
Step 603000
Ar 1.163781e+00 0.000000e+00 0.000000e+00
1
Step 604000
Ar 9.477028e-01 0.000000e+00 0.000000e+00
1
Step 605000
Ar 7.559389e-01 0.000000e+00 0.000000e+00
1
Step 606000
Ar 1.007956e+00 0.000000e+00 0.000000e+00
1
Step 607000
Ar 8.259303e-01 0.000000e+00 0.000000e+00
1
Step 608000
Ar 9.385458e-01 0.000000e+00 0.000000e+00
1
Step 609000
Ar 1.128080e+00 0.000000e+00 0.000000e+00
1
Step 610000
Ar 8.335149e-01 0.000000e+00 0.000000e+00
1
Step 611000
Ar 8.986531e-01 0.000000e+00 0.000000e+00
1
Step 612000
Ar 1.176708e+00 0.000000e+00 0.000000e+00
1
Step 613000
Ar 9.407534e-01 0.000000e+00 0.000000e+00
1
Step 614000
Ar 9.618706e-01 0.000000e+00 0.000000e+00
1
Step 615000
Ar 1.170997e+00 0.000000e+00 0.000000e+00
1
Step 616000
Ar 8.531976e-01 0.000000e+00 0.000000e+00
1
Step 617000
Ar 7.492438e-01 0.000000e+00 0.000000e+00
1
Step 618000
Ar 8.763611e-01 0.000000e+00 0.000000e+00
1
Step 619000
Ar 1.093014e+00 0.000000e+00 0.000000e+00
1
Step 620000
Ar 8.433929e-01 0.000000e+00 0.000000e+00
1
Step 621000
Ar 9.433196e-01 0.000000e+00 0.000000e+00
1
Step 622000
Ar 9.567960e-01 0.000000e+00 0.000000e+00
1
Step 623000
Ar 1.232929e+00 0.000000e+00 0.000000e+00
1
Step 624000
Ar 9.750424e-01 0.000000e+00 0.000000e+00
1
Step 625000
Ar 1.035967e+00 0.000000e+00 0.000000e+00
1
Step 626000
Ar 8.648008e-01 0.000000e+00 0.000000e+00
1
Step 627000
Ar 9.679551e-01 0.000000e+00 0.000000e+00
1
Step 628000
Ar 1.034948e+00 0.000000e+00 0.000000e+00
1
Step 629000
Ar 9.951955e-01 0.000000e+00 0.000000e+00
1
Step 630000
Ar 1.008736e+00 0.000000e+00 0.000000e+00
1
Step 631000
Ar 9.342889e-01 0.000000e+00 0.000000e+00
1
Step 632000
Ar 1.005407e+00 0.000000e+00 0.000000e+00
1
Step 633000
Ar 8.803793e-01 0.000000e+00 0.000000e+00
1
Step 634000
Ar 1.055184e+00 0.000000e+00 0.000000e+00
1
Step 635000
Ar 9.878337e-01 0.000000e+00 0.000000e+00
1
Step 636000
Ar 1.009668e+00 0.000000e+00 0.000000e+00
1
Step 637000
Ar 1.095013e+00 0.000000e+00 0.000000e+00
1
Step 638000
Ar 9.548597e-01 0.000000e+00 0.000000e+00
1
Step 639000
Ar 8.758647e-01 0.000000e+00 0.000000e+00
1
Step 640000
Ar 9.543748e-01 0.000000e+00 0.000000e+00
1
Step 641000
Ar 9.584305e-01 0.000000e+00 0.000000e+00
1
Step 642000
Ar 7.674638e-01 0.000000e+00 0.000000e+00
1
Step 643000
Ar 9.562497e-01 0.000000e+00 0.000000e+00
1
Step 644000
Ar 9.382125e-01 0.000000e+00 0.000000e+00
1
Step 645000
Ar 9.346208e-01 0.000000e+00 0.000000e+00
1
Step 646000
Ar 1.006003e+00 0.000000e+00 0.000000e+00
1
Step 647000
Ar 1.099265e+00 0.000000e+00 0.000000e+00
1
Step 648000
Ar 7.040014e-01 0.000000e+00 0.000000e+00
1
Step 649000
Ar 1.160151e+00 0.000000e+00 0.000000e+00
1
Step 650000
Ar 1.049993e+00 0.000000e+00 0.000000e+00
1
Step 651000
Ar 1.050884e+00 0.000000e+00 0.000000e+00
1
Step 652000
Ar 8.942211e-01 0.000000e+00 0.000000e+00
1
Step 653000
Ar 9.331066e-01 0.000000e+00 0.000000e+00
1
Step 654000
Ar 9.939997e-01 0.000000e+00 0.000000e+00
1
Step 655000