1
Step 120000
Ar 9.926556e-01 0.000000e+00 0.000000e+00
1
Step 121000
Ar 1.015488e+00 0.000000e+00 0.000000e+00
1
Step 122000
Ar 1.034159e+00 0.000000e+00 0.000000e+00
1
Step 123000
Ar 1.005261e+00 0.000000e+00 0.000000e+00
1
Step 124000
Ar 1.008984e+00 0.000000e+00 0.000000e+00
1
Step 125000
Ar 1.000839e+00 0.000000e+00 0.000000e+00
1
Step 126000
Ar 9.882082e-01 0.000000e+00 0.000000e+00
1
Step 127000
Ar 9.827994e-01 0.000000e+00 0.000000e+00
1
Step 128000
Ar 9.815310e-01 0.000000e+00 0.000000e+00
1
Step 129000
Ar 9.838021e-01 0.000000e+00 0.000000e+00
1
Step 130000
Ar 9.911340e-01 0.000000e+00 0.000000e+00
1
Step 131000
Ar 9.797147e-01 0.000000e+00 0.000000e+00
1
Step 132000
Ar 9.764044e-01 0.000000e+00 0.000000e+00
1
Step 133000
Ar 9.800992e-01 0.000000e+00 0.000000e+00
1
Step 134000
Ar 9.778319e-01 0.000000e+00 0.000000e+00
1
Step 135000
Ar 9.720666e-01 0.000000e+00 0.000000e+00
1
Step 136000
Ar 1.017034e+00 0.000000e+00 0.000000e+00
1
Step 137000
Ar 1.016930e+00 0.000000e+00 0.000000e+00
1
Step 138000
Ar 1.010295e+00 0.000000e+00 0.000000e+00
1
Step 139000
Ar 1.017116e+00 0.000000e+00 0.000000e+00
1
Step 140000
Ar 1.016478e+00 0.000000e+00 0.000000e+00
1
Step 141000
Ar 1.029715e+00 0.000000e+00 0.000000e+00
1
Step 142000
Ar 1.028334e+00 0.000000e+00 0.000000e+00
1
Step 143000
Ar 1.039858e+00 0.000000e+00 0.000000e+00
1
Step 144000
Ar 1.038329e+00 0.000000e+00 0.000000e+00
1
Step 145000
Ar 1.028594e+00 0.000000e+00 0.000000e+00
1
Step 146000
Ar 1.040194e+00 0.000000e+00 0.000000e+00
1
Step 147000
Ar 1.040981e+00 0.000000e+00 0.000000e+00
1
Step 148000
Ar 1.040319e+00 0.000000e+00 0.000000e+00
1
Step 149000
Ar 1.042338e+00 0.000000e+00 0.000000e+00
1
Step 150000
Ar 1.033984e+00 0.000000e+00 0.000000e+00
1
Step 151000
Ar 1.046849e+00 0.000000e+00 0.000000e+00
1
Step 152000
Ar 1.052448e+00 0.000000e+00 0.000000e+00
1
Step 153000
Ar 1.048001e+00 0.000000e+00 0.000000e+00
1
Step 154000
Ar 1.044218e+00 0.000000e+00 0.000000e+00
1
Step 155000
Ar 1.045777e+00 0.000000e+00 0.000000e+00
1
Step 156000
Ar 9.610731e-01 0.000000e+00 0.000000e+00
1
Step 157000
Ar 9.607069e-01 0.000000e+00 0.000000e+00
1
Step 158000
Ar 9.540473e-01 0.000000e+00 0.000000e+00
1
Step 159000
Ar 9.574184e-01 0.000000e+00 0.000000e+00
1
Step 160000
Ar 9.629286e-01 0.000000e+00 0.000000e+00
1
Step 161000
Ar 9.525143e-01 0.000000e+00 0.000000e+00
1
Step 162000
Ar 9.540190e-01 0.000000e+00 0.000000e+00
1
Step 163000
Ar 9.498355e-01 0.000000e+00 0.000000e+00
1
Step 164000
Ar 9.523038e-01 0.000000e+00 0.000000e+00
1
Step 165000
Ar 9.511445e-01 0.000000e+00 0.000000e+00
1
Step 166000
Ar 9.356467e-01 0.000000e+00 0.000000e+00
1
Step 167000
Ar 9.359592e-01 0.000000e+00 0.000000e+00
1
Step 168000
Ar 9.296917e-01 0.000000e+00 0.000000e+00
1
Step 169000
Ar 1.057743e+00 0.000000e+00 0.000000e+00
1
Step 170000
Ar 1.058777e+00 0.000000e+00 0.000000e+00
1
Step 171000
Ar 9.357480e-01 0.000000e+00 0.000000e+00
1
Step 172000
Ar 9.401427e-01 0.000000e+00 0.000000e+00
1
Step 173000
Ar 9.410358e-01 0.000000e+00 0.000000e+00
1
Step 174000
Ar 9.338836e-01 0.000000e+00 0.000000e+00
1
Step 175000
Ar 9.412959e-01 0.000000e+00 0.000000e+00
1
Step 176000
Ar 8.576280e-01 0.000000e+00 0.000000e+00
1
Step 177000
Ar 9.286412e-01 0.000000e+00 0.000000e+00
1
Step 178000
Ar 9.288631e-01 0.000000e+00 0.000000e+00
1
Step 179000
Ar 9.315351e-01 0.000000e+00 0.000000e+00
1
Step 180000
Ar 9.219105e-01 0.000000e+00 0.000000e+00
1
Step 181000
Ar 9.102423e-01 0.000000e+00 0.000000e+00
1
Step 182000
Ar 9.687134e-01 0.000000e+00 0.000000e+00
1
Step 183000
Ar 9.926322e-01 0.000000e+00 0.000000e+00
1
Step 184000
Ar 9.367935e-01 0.000000e+00 0.000000e+00
1
Step 185000
Ar 9.883241e-01 0.000000e+00 0.000000e+00
1
Step 186000
Ar 8.961693e-01 0.000000e+00 0.000000e+00
1
Step 187000
Ar 1.070083e+00 0.000000e+00 0.000000e+00
1
Step 188000
Ar 1.066793e+00 0.000000e+00 0.000000e+00
1
Step 189000
Ar 1.075852e+00 0.000000e+00 0.000000e+00
1
Step 190000
Ar 1.072002e+00 0.000000e+00 0.000000e+00
1
Step 191000
Ar 1.037481e+00 0.000000e+00 0.000000e+00
1
Step 192000
Ar 1.070360e+00 0.000000e+00 0.000000e+00
1
Step 193000
Ar 9.332919e-01 0.000000e+00 0.000000e+00
1
Step 194000
Ar 1.040325e+00 0.000000e+00 0.000000e+00
1
Step 195000
Ar 1.039045e+00 0.000000e+00 0.000000e+00
1
Step 196000
Ar 9.541166e-01 0.000000e+00 0.000000e+00
1
Step 197000
Ar 1.081331e+00 0.000000e+00 0.000000e+00
1
Step 198000
Ar 1.085620e+00 0.000000e+00 0.000000e+00
1
Step 199000
Ar 1.083936e+00 0.000000e+00 0.000000e+00
1
Step 200000
Ar 1.079902e+00 0.000000e+00 0.000000e+00
1
Step 201000
Ar 1.090612e+00 0.000000e+00 0.000000e+00
1
Step 202000
Ar 1.094127e+00 0.000000e+00 0.000000e+00
1
Step 203000
Ar 1.087588e+00 0.000000e+00 0.000000e+00
1
Step 204000
Ar 1.088534e+00 0.000000e+00 0.000000e+00
1
Step 205000
Ar 1.091357e+00 0.000000e+00 0.000000e+00
1
Step 206000
Ar 1.052246e+00 0.000000e+00 0.000000e+00
1
Step 207000
Ar 1.051675e+00 0.000000e+00 0.000000e+00
1
Step 208000
Ar 1.120159e+00 0.000000e+00 0.000000e+00
1
Step 209000
Ar 1.009373e+00 0.000000e+00 0.000000e+00
1
Step 210000
Ar 1.102300e+00 0.000000e+00 0.000000e+00
1
Step 211000
Ar 1.006971e+00 0.000000e+00 0.000000e+00
1
Step 212000
Ar 9.164296e-01 0.000000e+00 0.000000e+00
1
Step 213000
Ar 9.357325e-01 0.000000e+00 0.000000e+00
1
Step 214000
Ar 9.401725e-01 0.000000e+00 0.000000e+00
1
Step 215000
Ar 7.731696e-01 0.000000e+00 0.000000e+00
1
Step 216000
Ar 1.049756e+00 0.000000e+00 0.000000e+00
1
Step 217000
Ar 9.168592e-01 0.000000e+00 0.000000e+00
1
Step 218000
Ar 9.769856e-01 0.000000e+00 0.000000e+00
1
Step 219000
Ar 9.098947e-01 0.000000e+00 0.000000e+00
1
Step 220000
Ar 9.100448e-01 0.000000e+00 0.000000e+00
1
Step 221000
Ar 1.007255e+00 0.000000e+00 0.000000e+00
1
Step 222000
Ar 1.004311e+00 0.000000e+00 0.000000e+00
1
Step 223000
Ar 1.230223e+00 0.000000e+00 0.000000e+00
1
Step 224000
Ar 1.049874e+00 0.000000e+00 0.000000e+00
1
Step 225000
Ar 1.003146e+00 0.000000e+00 0.000000e+00
1
Step 226000
Ar 1.107952e+00 0.000000e+00 0.000000e+00
1
Step 227000
Ar 1.072716e+00 0.000000e+00 0.000000e+00
1
Step 228000
Ar 8.838512e-01 0.000000e+00 0.000000e+00
1
Step 229000
Ar 9.766121e-01 0.000000e+00 0.000000e+00
1
Step 230000
Ar 1.189034e+00 0.000000e+00 0.000000e+00
1
Step 231000
Ar 6.629841e-01 0.000000e+00 0.000000e+00
1
Step 232000
Ar 1.113371e+00 0.000000e+00 0.000000e+00
1
Step 233000
Ar 1.052532e+00 0.000000e+00 0.000000e+00
1
Step 234000
Ar 1.052148e+00 0.000000e+00 0.000000e+00
1
Step 235000
Ar 1.049845e+00 0.000000e+00 0.000000e+00
1
Step 236000
Ar 1.064302e+00 0.000000e+00 0.000000e+00
1
Step 237000
Ar 1.062923e+00 0.000000e+00 0.000000e+00
1
Step 238000
Ar 8.133065e-01 0.000000e+00 0.000000e+00
1
Step 239000
Ar 1.056189e+00 0.000000e+00 0.000000e+00
1
Step 240000
Ar 1.065125e+00 0.000000e+00 0.000000e+00
1
Step 241000
Ar 9.575174e-01 0.000000e+00 0.000000e+00
1
Step 242000
Ar 1.002405e+00 0.000000e+00 0.000000e+00
1
Step 243000
Ar 1.020107e+00 0.000000e+00 0.000000e+00
1
Step 244000
Ar 1.017360e+00 0.000000e+00 0.000000e+00
1
Step 245000
Ar 1.056038e+00 0.000000e+00 0.000000e+00
1
Step 246000
Ar 1.077117e+00 0.000000e+00 0.000000e+00
1
Step 247000
Ar 1.093743e+00 0.000000e+00 0.000000e+00
1
Step 248000
Ar 1.029124e+00 0.000000e+00 0.000000e+00
1
Step 249000
Ar 8.980831e-01 0.000000e+00 0.000000e+00
1
Step 250000
Ar 8.941670e-01 0.000000e+00 0.000000e+00
1
Step 251000
Ar 1.073882e+00 0.000000e+00 0.000000e+00
1
Step 252000
Ar 9.746336e-01 0.000000e+00 0.000000e+00
1
Step 253000
Ar 1.178235e+00 0.000000e+00 0.000000e+00
1
Step 254000
Ar 1.154583e+00 0.000000e+00 0.000000e+00
1
Step 255000
Ar 8.904025e-01 0.000000e+00 0.000000e+00
1
Step 256000
Ar 9.787893e-01 0.000000e+00 0.000000e+00
1
Step 257000
Ar 8.813121e-01 0.000000e+00 0.000000e+00
1
Step 258000
Ar 8.836151e-01 0.000000e+00 0.000000e+00
1
Step 259000
Ar 8.794320e-01 0.000000e+00 0.000000e+00
1
Step 260000
Ar 8.781538e-01 0.000000e+00 0.000000e+00
1
Step 261000
Ar 9.131852e-01 0.000000e+00 0.000000e+00
1
Step 262000
Ar 9.416610e-01 0.000000e+00 0.000000e+00
1
Step 263000
Ar 1.070478e+00 0.000000e+00 0.000000e+00
1
Step 264000
Ar 9.791851e-01 0.000000e+00 0.000000e+00
1
Step 265000
Ar 1.189573e+00 0.000000e+00 0.000000e+00
1
Step 266000
Ar 9.914737e-01 0.000000e+00 0.000000e+00
1
Step 267000
Ar 1.068872e+00 0.000000e+00 0.000000e+00
1
Step 268000
Ar 1.002524e+00 0.000000e+00 0.000000e+00
1
Step 269000
Ar 1.048402e+00 0.000000e+00 0.000000e+00
1
Step 270000
Ar 9.503007e-01 0.000000e+00 0.000000e+00
1
Step 271000
Ar 9.404571e-01 0.000000e+00 0.000000e+00
1
Step 272000
Ar 9.041608e-01 0.000000e+00 0.000000e+00
1
Step 273000
Ar 1.085996e+00 0.000000e+00 0.000000e+00
1
Step 274000
Ar 1.070096e+00 0.000000e+00 0.000000e+00
1
Step 275000
Ar 1.070041e+00 0.000000e+00 0.000000e+00
1
Step 276000
Ar 9.580728e-01 0.000000e+00 0.000000e+00
1
Step 277000
Ar 9.973111e-01 0.000000e+00 0.000000e+00
1
Step 278000
Ar 9.268572e-01 0.000000e+00 0.000000e+00
1
Step 279000
Ar 1.010335e+00 0.000000e+00 0.000000e+00
1
Step 280000
Ar 1.010931e+00 0.000000e+00 0.000000e+00
1
Step 281000
Ar 9.182054e-01 0.000000e+00 0.000000e+00
1
Step 282000
Ar 1.185915e+00 0.000000e+00 0.000000e+00
1
Step 283000
Ar 8.682653e-01 0.000000e+00 0.000000e+00
1
Step 284000
Ar 8.959886e-01 0.000000e+00 0.000000e+00
1
Step 285000
Ar 7.634960e-01 0.000000e+00 0.000000e+00
1
Step 286000
Ar 1.086357e+00 0.000000e+00 0.000000e+00
1
Step 287000
Ar 1.085653e+00 0.000000e+00 0.000000e+00
1
Step 288000
Ar 1.084149e+00 0.000000e+00 0.000000e+00
1
Step 289000
Ar 1.086910e+00 0.000000e+00 0.000000e+00
1
Step 290000
Ar 1.084391e+00 0.000000e+00 0.000000e+00
1
Step 291000
Ar 1.107293e+00 0.000000e+00 0.000000e+00
1
Step 292000
Ar 7.538741e-01 0.000000e+00 0.000000e+00
1
Step 293000
Ar 9.191585e-01 0.000000e+00 0.000000e+00
1
Step 294000
Ar 1.012441e+00 0.000000e+00 0.000000e+00
1
Step 295000
Ar 8.704309e-01 0.000000e+00 0.000000e+00
1
Step 296000
Ar 9.096410e-01 0.000000e+00 0.000000e+00
1
Step 297000
Ar 1.094329e+00 0.000000e+00 0.000000e+00
1
Step 298000
Ar 1.112839e+00 0.000000e+00 0.000000e+00
1
Step 299000
Ar 9.350906e-01 0.000000e+00 0.000000e+00
1
Step 300000
Ar 9.606897e-01 0.000000e+00 0.000000e+00
1
Step 301000
Ar 9.299144e-01 0.000000e+00 0.000000e+00
1
Step 302000
Ar 9.503713e-01 0.000000e+00 0.000000e+00
1
Step 303000
Ar 8.777138e-01 0.000000e+00 0.000000e+00
1
Step 304000
Ar 8.642568e-01 0.000000e+00 0.000000e+00
1
Step 305000
Ar 8.607124e-01 0.000000e+00 0.000000e+00
1
Step 306000
Ar 7.461601e-01 0.000000e+00 0.000000e+00
1
Step 307000
Ar 8.042569e-01 0.000000e+00 0.000000e+00
1
Step 308000
Ar 1.108385e+00 0.000000e+00 0.000000e+00
1
Step 309000
Ar 1.116567e+00 0.000000e+00 0.000000e+00
1
Step 310000
Ar 9.323181e-01 0.000000e+00 0.000000e+00
1
Step 311000
Ar 9.333988e-01 0.000000e+00 0.000000e+00
1
Step 312000
Ar 9.317732e-01 0.000000e+00 0.000000e+00
1
Step 313000
Ar 9.371880e-01 0.000000e+00 0.000000e+00
1
Step 314000
Ar 9.347204e-01 0.000000e+00 0.000000e+00
1
Step 315000
Ar 9.441727e-01 0.000000e+00 0.000000e+00
1
Step 316000
Ar 9.239946e-01 0.000000e+00 0.000000e+00
1
Step 317000
Ar 9.312513e-01 0.000000e+00 0.000000e+00
1
Step 318000
Ar 9.293642e-01 0.000000e+00 0.000000e+00
1
Step 319000
Ar 9.316220e-01 0.000000e+00 0.000000e+00
1
Step 320000
Ar 9.307293e-01 0.000000e+00 0.000000e+00
1
Step 321000
Ar 1.038209e+00 0.000000e+00 0.000000e+00
1
Step 322000
Ar 1.062725e+00 0.000000e+00 0.000000e+00
1
Step 323000
Ar 8.474552e-01 0.000000e+00 0.000000e+00
1
Step 324000
Ar 8.498278e-01 0.000000e+00 0.000000e+00
1
Step 325000
Ar 1.038820e+00 0.000000e+00 0.000000e+00
1
Step 326000
Ar 1.046520e+00 0.000000e+00 0.000000e+00
1
Step 327000
Ar 1.051258e+00 0.000000e+00 0.000000e+00
1
Step 328000
Ar 1.050098e+00 0.000000e+00 0.000000e+00
1
Step 329000
Ar 1.047044e+00 0.000000e+00 0.000000e+00
1
Step 330000
Ar 1.049117e+00 0.000000e+00 0.000000e+00
1
Step 331000
Ar 1.061731e+00 0.000000e+00 0.000000e+00
1
Step 332000
Ar 1.059394e+00 0.000000e+00 0.000000e+00
1
Step 333000
Ar 1.059725e+00 0.000000e+00 0.000000e+00
1
Step 334000
Ar 1.061524e+00 0.000000e+00 0.000000e+00
1
Step 335000
Ar 1.064690e+00 0.000000e+00 0.000000e+00
1
Step 336000
Ar 1.078765e+00 0.000000e+00 0.000000e+00
1
Step 337000
Ar 1.075134e+00 0.000000e+00 0.000000e+00
1
Step 338000
Ar 9.205016e-01 0.000000e+00 0.000000e+00
1
Step 339000
Ar 9.207914e-01 0.000000e+00 0.000000e+00
1
Step 340000
Ar 9.188619e-01 0.000000e+00 0.000000e+00
1
Step 341000
Ar 9.931194e-01 0.000000e+00 0.000000e+00
1
Step 342000
Ar 1.113008e+00 0.000000e+00 0.000000e+00
1
Step 343000
Ar 1.111592e+00 0.000000e+00 0.000000e+00
1
Step 344000
Ar 1.110828e+00 0.000000e+00 0.000000e+00
1
Step 345000
Ar 1.111174e+00 0.000000e+00 0.000000e+00
1
Step 346000
Ar 1.008529e+00 0.000000e+00 0.000000e+00
1
Step 347000
Ar 1.091740e+00 0.000000e+00 0.000000e+00
1
Step 348000
Ar 9.067094e-01 0.000000e+00 0.000000e+00
1
Step 349000
Ar 9.172419e-01 0.000000e+00 0.000000e+00
1
Step 350000
Ar 9.074452e-01 0.000000e+00 0.000000e+00
1
Step 351000
Ar 1.120024e+00 0.000000e+00 0.000000e+00
1
Step 352000
Ar 1.120304e+00 0.000000e+00 0.000000e+00
1
Step 353000
Ar 7.156587e-01 0.000000e+00 0.000000e+00
1
Step 354000
Ar 1.122503e+00 0.000000e+00 0.000000e+00
1
Step 355000
Ar 1.009672e+00 0.000000e+00 0.000000e+00
1
Step 356000
Ar 9.507070e-01 0.000000e+00 0.000000e+00
1
Step 357000
Ar 8.059562e-01 0.000000e+00 0.000000e+00
1
Step 358000
Ar 9.630085e-01 0.000000e+00 0.000000e+00
1
Step 359000
Ar 1.060803e+00 0.000000e+00 0.000000e+00
1
Step 360000
Ar 8.781181e-01 0.000000e+00 0.000000e+00
1
Step 361000
Ar 8.508000e-01 0.000000e+00 0.000000e+00
1
Step 362000
Ar 8.542577e-01 0.000000e+00 0.000000e+00
1
Step 363000
Ar 8.496230e-01 0.000000e+00 0.000000e+00
1
Step 364000
Ar 8.503178e-01 0.000000e+00 0.000000e+00
1
Step 365000
Ar 8.537600e-01 0.000000e+00 0.000000e+00
1
Step 366000
Ar 8.265212e-01 0.000000e+00 0.000000e+00
1
Step 367000
Ar 8.505342e-01 0.000000e+00 0.000000e+00
1
Step 368000
Ar 8.449816e-01 0.000000e+00 0.000000e+00
1
Step 369000
Ar 8.410839e-01 0.000000e+00 0.000000e+00
1
Step 370000
Ar 9.265344e-01 0.000000e+00 0.000000e+00
1
Step 371000
Ar 7.031992e-01 0.000000e+00 0.000000e+00
1
Step 372000
Ar 7.475359e-01 0.000000e+00 0.000000e+00
1
Step 373000
Ar 9.638063e-01 0.000000e+00 0.000000e+00
1
Step 374000
Ar 8.440091e-01 0.000000e+00 0.000000e+00
1
Step 375000
Ar 8.435470e-01 0.000000e+00 0.000000e+00
1
Step 376000
Ar 9.820840e-01 0.000000e+00 0.000000e+00
1
Step 377000
Ar 9.911688e-01 0.000000e+00 0.000000e+00
1
Step 378000
Ar 7.984413e-01 0.000000e+00 0.000000e+00
1
Step 379000
Ar 1.119984e+00 0.000000e+00 0.000000e+00
1
Step 380000
Ar 1.118940e+00 0.000000e+00 0.000000e+00
1
Step 381000
Ar 1.215218e+00 0.000000e+00 0.000000e+00
1
Step 382000
Ar 8.694207e-01 0.000000e+00 0.000000e+00
1
Step 383000
Ar 8.681013e-01 0.000000e+00 0.000000e+00
1
Step 384000
Ar 8.690935e-01 0.000000e+00 0.000000e+00
1
Step 385000
Ar 9.274950e-01 0.000000e+00 0.000000e+00
1
Step 386000
Ar 8.688634e-01 0.000000e+00 0.000000e+00
1
Step 387000
Ar 8.638343e-01 0.000000e+00 0.000000e+00
1
Step 388000
Ar 8.665847e-01 0.000000e+00 0.000000e+00
1
Step 389000
Ar 8.263869e-01 0.000000e+00 0.000000e+00
1
Step 390000
Ar 8.355555e-01 0.000000e+00 0.000000e+00
1
Step 391000
Ar 9.461793e-01 0.000000e+00 0.000000e+00
1
Step 392000
Ar 1.094428e+00 0.000000e+00 0.000000e+00
1
Step 393000
Ar 1.094245e+00 0.000000e+00 0.000000e+00
1
Step 394000
Ar 1.090106e+00 0.000000e+00 0.000000e+00
1
Step 395000
Ar 1.096295e+00 0.000000e+00 0.000000e+00
1
Step 396000
Ar 1.063057e+00 0.000000e+00 0.000000e+00
1
Step 397000
Ar 1.080499e+00 0.000000e+00 0.000000e+00
1
Step 398000
Ar 1.089652e+00 0.000000e+00 0.000000e+00
1
Step 399000
Ar 9.167845e-01 0.000000e+00 0.000000e+00
1
Step 400000
Ar 1.198264e+00 0.000000e+00 0.000000e+00
1
Step 401000
Ar 6.286350e-01 0.000000e+00 0.000000e+00
1
Step 402000
Ar 1.095076e+00 0.000000e+00 0.000000e+00
1
Step 403000
Ar 9.628479e-01 0.000000e+00 0.000000e+00
1
Step 404000
Ar 1.150970e+00 0.000000e+00 0.000000e+00
1
Step 405000
Ar 9.900966e-01 0.000000e+00 0.000000e+00
1
Step 406000
Ar 9.049615e-01 0.000000e+00 0.000000e+00
1
Step 407000
Ar 7.716065e-01 0.000000e+00 0.000000e+00
1
Step 408000
Ar 1.058685e+00 0.000000e+00 0.000000e+00
1
Step 409000
Ar 1.025563e+00 0.000000e+00 0.000000e+00
1
Step 410000
Ar 8.440295e-01 0.000000e+00 0.000000e+00
1
Step 411000
Ar 8.296054e-01 0.000000e+00 0.000000e+00
1
Step 412000
Ar 8.280278e-01 0.000000e+00 0.000000e+00
1
Step 413000
Ar 8.287136e-01 0.000000e+00 0.000000e+00
1
Step 414000
Ar 8.288552e-01 0.000000e+00 0.000000e+00
1
Step 415000
Ar 8.283431e-01 0.000000e+00 0.000000e+00
1
Step 416000
Ar 8.175276e-01 0.000000e+00 0.000000e+00
1
Step 417000
Ar 8.184513e-01 0.000000e+00 0.000000e+00
1
Step 418000
Ar 8.199968e-01 0.000000e+00 0.000000e+00
1
Step 419000
Ar 8.208773e-01 0.000000e+00 0.000000e+00
1
Step 420000
Ar 8.192897e-01 0.000000e+00 0.000000e+00
1
Step 421000
Ar 9.788291e-01 0.000000e+00 0.000000e+00
1
Step 422000
Ar 8.139359e-01 0.000000e+00 0.000000e+00
1
Step 423000
Ar 8.113040e-01 0.000000e+00 0.000000e+00
1
Step 424000
Ar 8.095067e-01 0.000000e+00 0.000000e+00
1
Step 425000
Ar 1.059783e+00 0.000000e+00 0.000000e+00
1
Step 426000
Ar 6.486130e-01 0.000000e+00 0.000000e+00
1
Step 427000
Ar 7.805119e-01 0.000000e+00 0.000000e+00
1
Step 428000
Ar 1.079084e+00 0.000000e+00 0.000000e+00
1
Step 429000
Ar 1.077361e+00 0.000000e+00 0.000000e+00
1
Step 430000
Ar 9.266811e-01 0.000000e+00 0.000000e+00
1
Step 431000
Ar 1.016224e+00 0.000000e+00 0.000000e+00
1
Step 432000
Ar 6.389245e-01 0.000000e+00 0.000000e+00
1
Step 433000
Ar 9.549782e-01 0.000000e+00 0.000000e+00
1
Step 434000
Ar 1.132428e+00 0.000000e+00 0.000000e+00
1
Step 435000
Ar 1.029886e+00 0.000000e+00 0.000000e+00
1
Step 436000
Ar 1.055623e+00 0.000000e+00 0.000000e+00
1
Step 437000
Ar 8.974900e-01 0.000000e+00 0.000000e+00
1
Step 438000
Ar 1.110827e+00 0.000000e+00 0.000000e+00
1
Step 439000
Ar 8.869206e-01 0.000000e+00 0.000000e+00
1
Step 440000
Ar 1.165409e+00 0.000000e+00 0.000000e+00
1
Step 441000
Ar -1.013458e+00 0.000000e+00 0.000000e+00
1
Step 442000
Ar -1.017265e+00 0.000000e+00 0.000000e+00
1
Step 443000
Ar -9.859746e-01 0.000000e+00 0.000000e+00
1
Step 444000
Ar -1.006782e+00 0.000000e+00 0.000000e+00
1
Step 445000
Ar -9.942278e-01 0.000000e+00 0.000000e+00
1
Step 446000
Ar -1.013206e+00 0.000000e+00 0.000000e+00
1
Step 447000
Ar -1.017026e+00 0.000000e+00 0.000000e+00
1
Step 448000
Ar -1.011224e+00 0.000000e+00 0.000000e+00
1
Step 449000
Ar -1.018700e+00 0.000000e+00 0.000000e+00
1
Step 450000
Ar -1.006617e+00 0.000000e+00 0.000000e+00
1
Step 451000
Ar -1.033111e+00 0.000000e+00 0.000000e+00
1
Step 452000
Ar -1.021783e+00 0.000000e+00 0.000000e+00
1
Step 453000
Ar -1.025143e+00 0.000000e+00 0.000000e+00
1
Step 454000
Ar -1.017592e+00 0.000000e+00 0.000000e+00
1
Step 455000
Ar -1.026037e+00 0.000000e+00 0.000000e+00
1
Step 456000
Ar -1.039088e+00 0.000000e+00 0.000000e+00
1
Step 457000
Ar -1.037342e+00 0.000000e+00 0.000000e+00
1
Step 458000
Ar -1.044028e+00 0.000000e+00 0.000000e+00
1
Step 459000
Ar -1.040736e+00 0.000000e+00 0.000000e+00
1
Step 460000
Ar -1.044326e+00 0.000000e+00 0.000000e+00
1
Step 461000
Ar -9.766057e-01 0.000000e+00 0.000000e+00
1
Step 462000
Ar -9.812328e-01 0.000000e+00 0.000000e+00
1
Step 463000
Ar -9.751244e-01 0.000000e+00 0.000000e+00
1
Step 464000
Ar -9.813137e-01 0.000000e+00 0.000000e+00
1
Step 465000
Ar -9.652581e-01 0.000000e+00 0.000000e+00
1
Step 466000
Ar -9.775186e-01 0.000000e+00 0.000000e+00
1
Step 467000
Ar -9.820514e-01 0.000000e+00 0.000000e+00
1
Step 468000
Ar -9.783741e-01 0.000000e+00 0.000000e+00
1
Step 469000
Ar -9.811495e-01 0.000000e+00 0.000000e+00
1
Step 470000
Ar -9.786613e-01 0.000000e+00 0.000000e+00
1
Step 471000
Ar -9.517709e-01 0.000000e+00 0.000000e+00
1
Step 472000
Ar -9.535031e-01 0.000000e+00 0.000000e+00
1
Step 473000
Ar -9.536788e-01 0.000000e+00 0.000000e+00
1
Step 474000
Ar -9.482617e-01 0.000000e+00 0.000000e+00
1
Step 475000
Ar -9.556150e-01 0.000000e+00 0.000000e+00
1
Step 476000
Ar -9.851999e-01 0.000000e+00 0.000000e+00
1
Step 477000
Ar -9.436351e-01 0.000000e+00 0.000000e+00
1
Step 478000
Ar -9.429663e-01 0.000000e+00 0.000000e+00
1
Step 479000
Ar -9.461182e-01 0.000000e+00 0.000000e+00
1
Step 480000
Ar -9.400436e-01 0.000000e+00 0.000000e+00
1
Step 481000
Ar -1.003383e+00 0.000000e+00 0.000000e+00
1
Step 482000
Ar -9.289814e-01 0.000000e+00 0.000000e+00
1
Step 483000
Ar -9.262108e-01 0.000000e+00 0.000000e+00
1
Step 484000
Ar -9.309018e-01 0.000000e+00 0.000000e+00
1
Step 485000
Ar -9.299253e-01 0.000000e+00 0.000000e+00
1
Step 486000
Ar -1.116862e+00 0.000000e+00 0.000000e+00
1
Step 487000
Ar -1.050292e+00 0.000000e+00 0.000000e+00
1
Step 488000
Ar -1.060513e+00 0.000000e+00 0.000000e+00
1
Step 489000
Ar -1.052076e+00 0.000000e+00 0.000000e+00
1
Step 490000
Ar -1.054142e+00 0.000000e+00 0.000000e+00
1
Step 491000
Ar -1.064311e+00 0.000000e+00 0.000000e+00
1
Step 492000
Ar -1.064967e+00 0.000000e+00 0.000000e+00
1
Step 493000
Ar -1.069755e+00 0.000000e+00 0.000000e+00
1
Step 494000
Ar -1.065667e+00 0.000000e+00 0.000000e+00
1
Step 495000
Ar -1.064237e+00 0.000000e+00 0.000000e+00
1
Step 496000
Ar -1.078310e+00 0.000000e+00 0.000000e+00
1
Step 497000
Ar -9.860716e-01 0.000000e+00 0.000000e+00
1
Step 498000
Ar -1.080830e+00 0.000000e+00 0.000000e+00
1
Step 499000
Ar -1.076902e+00 0.000000e+00 0.000000e+00
1
Step 500000
Ar -1.076293e+00 0.000000e+00 0.000000e+00
1
Step 501000
Ar -9.183682e-01 0.000000e+00 0.000000e+00
1
Step 502000
Ar -9.167566e-01 0.000000e+00 0.000000e+00
1
Step 503000
Ar -9.233232e-01 0.000000e+00 0.000000e+00
1
Step 504000
Ar -9.170671e-01 0.000000e+00 0.000000e+00
1
Step 505000
Ar -9.207249e-01 0.000000e+00 0.000000e+00
1
Step 506000
Ar -9.049698e-01 0.000000e+00 0.000000e+00
1
Step 507000
Ar -9.103646e-01 0.000000e+00 0.000000e+00
1
Step 508000
Ar -9.094867e-01 0.000000e+00 0.000000e+00
1
Step 509000
Ar -9.100699e-01 0.000000e+00 0.000000e+00
1
Step 510000
Ar -9.135497e-01 0.000000e+00 0.000000e+00
1
Step 511000
Ar -9.046626e-01 0.000000e+00 0.000000e+00
1
Step 512000
Ar -9.043958e-01 0.000000e+00 0.000000e+00
1
Step 513000
Ar -9.052986e-01 0.000000e+00 0.000000e+00
1
Step 514000
Ar -9.003122e-01 0.000000e+00 0.000000e+00
1
Step 515000
Ar -9.040160e-01 0.000000e+00 0.000000e+00
1
Step 516000
Ar -1.012747e+00 0.000000e+00 0.000000e+00
1
Step 517000
Ar -1.014434e+00 0.000000e+00 0.000000e+00
1
Step 518000
Ar -1.016334e+00 0.000000e+00 0.000000e+00
1
Step 519000
Ar -9.849637e-01 0.000000e+00 0.000000e+00
1
Step 520000
Ar -9.869411e-01 0.000000e+00 0.000000e+00
1
Step 521000
Ar -1.089434e+00 0.000000e+00 0.000000e+00
1
Step 522000
Ar -1.082136e+00 0.000000e+00 0.000000e+00
1
Step 523000
Ar -9.882617e-01 0.000000e+00 0.000000e+00
1
Step 524000
Ar -8.958899e-01 0.000000e+00 0.000000e+00
1
Step 525000
Ar -8.903909e-01 0.000000e+00 0.000000e+00
1
Step 526000
Ar -1.130198e+00 0.000000e+00 0.000000e+00
1
Step 527000
Ar -9.668363e-01 0.000000e+00 0.000000e+00
1
Step 528000
Ar -1.087791e+00 0.000000e+00 0.000000e+00
1
Step 529000
Ar -1.084254e+00 0.000000e+00 0.000000e+00
1
Step 530000
Ar -9.003152e-01 0.000000e+00 0.000000e+00
1
Step 531000
Ar -8.803265e-01 0.000000e+00 0.000000e+00
1
Step 532000
Ar -9.964902e-01 0.000000e+00 0.000000e+00
1
Step 533000
Ar -9.423151e-01 0.000000e+00 0.000000e+00
1
Step 534000
Ar -1.132392e+00 0.000000e+00 0.000000e+00
1
Step 535000
Ar -1.016553e+00 0.000000e+00 0.000000e+00
1
Step 536000
Ar -9.721454e-01 0.000000e+00 0.000000e+00
1
Step 537000
Ar -9.488532e-01 0.000000e+00 0.000000e+00
1
Step 538000
Ar -8.775986e-01 0.000000e+00 0.000000e+00
1
Step 539000
Ar -8.800080e-01 0.000000e+00 0.000000e+00
1
Step 540000
Ar -8.820318e-01 0.000000e+00 0.000000e+00
1
Step 541000
Ar -8.727313e-01 0.000000e+00 0.000000e+00
1
Step 542000
Ar -8.716425e-01 0.000000e+00 0.000000e+00
1
Step 543000
Ar -8.772849e-01 0.000000e+00 0.000000e+00
1
Step 544000
Ar -8.671695e-01 0.000000e+00 0.000000e+00
1
Step 545000
Ar -8.701747e-01 0.000000e+00 0.000000e+00
1
Step 546000
Ar -7.454211e-01 0.000000e+00 0.000000e+00
1
Step 547000
Ar -9.470769e-01 0.000000e+00 0.000000e+00
1
Step 548000
Ar -1.008986e+00 0.000000e+00 0.000000e+00
1
Step 549000
Ar -9.704653e-01 0.000000e+00 0.000000e+00
1
Step 550000
Ar -9.469140e-01 0.000000e+00 0.000000e+00
1
Step 551000
Ar -1.001999e+00 0.000000e+00 0.000000e+00
1
Step 552000
Ar -9.953581e-01 0.000000e+00 0.000000e+00
1
Step 553000
Ar -1.005980e+00 0.000000e+00 0.000000e+00
1
Step 554000
Ar -1.002254e+00 0.000000e+00 0.000000e+00
1
Step 555000
Ar -1.001544e+00 0.000000e+00 0.000000e+00
1
Step 556000
Ar -9.783423e-01 0.000000e+00 0.000000e+00
1
Step 557000
Ar -1.027757e+00 0.000000e+00 0.000000e+00
1
Step 558000
Ar -9.709547e-01 0.000000e+00 0.000000e+00
1
Step 559000
Ar -9.734244e-01 0.000000e+00 0.000000e+00
1
Step 560000
Ar -8.290265e-01 0.000000e+00 0.000000e+00
1
Step 561000
Ar -1.091697e+00 0.000000e+00 0.000000e+00
1
Step 562000
Ar -1.087569e+00 0.000000e+00 0.000000e+00
1
Step 563000
Ar -1.086072e+00 0.000000e+00 0.000000e+00
1
Step 564000
Ar -1.085461e+00 0.000000e+00 0.000000e+00
1
Step 565000
Ar -1.087052e+00 0.000000e+00 0.000000e+00
1
Step 566000
Ar -9.743975e-01 0.000000e+00 0.000000e+00
1
Step 567000
Ar -1.056837e+00 0.000000e+00 0.000000e+00
1
Step 568000
Ar -9.744819e-01 0.000000e+00 0.000000e+00
1
Step 569000
Ar -9.746161e-01 0.000000e+00 0.000000e+00
1
Step 570000
Ar -9.742701e-01 0.000000e+00 0.000000e+00
1
Step 571000
Ar -9.647360e-01 0.000000e+00 0.000000e+00
1
Step 572000
Ar -9.639083e-01 0.000000e+00 0.000000e+00
1
Step 573000
Ar -9.608192e-01 0.000000e+00 0.000000e+00
1
Step 574000
Ar -9.600890e-01 0.000000e+00 0.000000e+00
1
Step 575000
Ar -9.615444e-01 0.000000e+00 0.000000e+00
1
Step 576000
Ar -9.546595e-01 0.000000e+00 0.000000e+00
1
Step 577000
Ar -9.519760e-01 0.000000e+00 0.000000e+00
1
Step 578000
Ar -9.481222e-01 0.000000e+00 0.000000e+00
1
Step 579000
Ar -9.520163e-01 0.000000e+00 0.000000e+00
1
Step 580000
Ar -9.479955e-01 0.000000e+00 0.000000e+00
1
Step 581000
Ar -1.096686e+00 0.000000e+00 0.000000e+00
1
Step 582000
Ar -1.098699e+00 0.000000e+00 0.000000e+00
1
Step 583000
Ar -1.098513e+00 0.000000e+00 0.000000e+00
1
Step 584000
Ar -1.096734e+00 0.000000e+00 0.000000e+00
1
Step 585000
Ar -1.095469e+00 0.000000e+00 0.000000e+00
1
Step 586000
Ar -1.104777e+00 0.000000e+00 0.000000e+00
1
Step 587000
Ar -1.102822e+00 0.000000e+00 0.000000e+00
1
Step 588000
Ar -1.101867e+00 0.000000e+00 0.000000e+00
1
Step 589000
Ar -1.105645e+00 0.000000e+00 0.000000e+00
1
Step 590000
Ar -1.103135e+00 0.000000e+00 0.000000e+00
1
Step 591000
Ar -9.862684e-01 0.000000e+00 0.000000e+00
1
Step 592000
Ar -9.851099e-01 0.000000e+00 0.000000e+00
1
Step 593000
Ar -9.849357e-01 0.000000e+00 0.000000e+00
1
Step 594000
Ar -1.013609e+00 0.000000e+00 0.000000e+00
1
Step 595000
Ar -9.970647e-01 0.000000e+00 0.000000e+00
1
Step 596000
Ar -9.623061e-01 0.000000e+00 0.000000e+00
1
Step 597000
Ar -9.820992e-01 0.000000e+00 0.000000e+00
1
Step 598000
Ar -9.769713e-01 0.000000e+00 0.000000e+00
1
Step 599000
Ar -9.829641e-01 0.000000e+00 0.000000e+00
1
Step 600000
Ar -9.863999e-01 0.000000e+00 0.000000e+00
1
Step 601000
Ar -9.699697e-01 0.000000e+00 0.000000e+00
1
Step 602000
Ar -1.040072e+00 0.000000e+00 0.000000e+00
1
Step 603000
Ar -9.053461e-01 0.000000e+00 0.000000e+00
1
Step 604000
Ar -9.351914e-01 0.000000e+00 0.000000e+00
1
Step 605000
Ar -9.364119e-01 0.000000e+00 0.000000e+00
1
Step 606000
Ar -9.254200e-01 0.000000e+00 0.000000e+00
1
Step 607000
Ar -9.270882e-01 0.000000e+00 0.000000e+00
1
Step 608000
Ar -9.251526e-01 0.000000e+00 0.000000e+00
1
Step 609000
Ar -9.252379e-01 0.000000e+00 0.000000e+00
1
Step 610000
Ar -9.216541e-01 0.000000e+00 0.000000e+00
1
Step 611000
Ar -1.044966e+00 0.000000e+00 0.000000e+00
1
Step 612000
Ar -1.113182e+00 0.000000e+00 0.000000e+00
1
Step 613000
Ar -1.033447e+00 0.000000e+00 0.000000e+00
1
Step 614000
Ar -1.034122e+00 0.000000e+00 0.000000e+00
1
Step 615000
Ar -1.032319e+00 0.000000e+00 0.000000e+00
1
Step 616000
Ar -1.038606e+00 0.000000e+00 0.000000e+00
1
Step 617000
Ar -1.020349e+00 0.000000e+00 0.000000e+00
1
Step 618000
Ar -1.016683e+00 0.000000e+00 0.000000e+00
1
Step 619000
Ar -1.017842e+00 0.000000e+00 0.000000e+00
1
Step 620000
Ar -1.018177e+00 0.000000e+00 0.000000e+00
1
Step 621000
Ar -1.057312e+00 0.000000e+00 0.000000e+00
1
Step 622000
Ar -1.057117e+00 0.000000e+00 0.000000e+00
1
Step 623000
Ar -1.018324e+00 0.000000e+00 0.000000e+00
1
Step 624000
Ar -1.002030e+00 0.000000e+00 0.000000e+00
1
Step 625000
Ar -1.038377e+00 0.000000e+00 0.000000e+00
1
Step 626000
Ar -8.041580e-01 0.000000e+00 0.000000e+00
1
Step 627000
Ar -8.774692e-01 0.000000e+00 0.000000e+00
1
Step 628000
Ar -9.718661e-01 0.000000e+00 0.000000e+00
1
Step 629000
Ar -9.717853e-01 0.000000e+00 0.000000e+00
1
Step 630000
Ar -1.112983e+00 0.000000e+00 0.000000e+00
1
Step 631000
Ar -8.561296e-01 0.000000e+00 0.000000e+00
1
Step 632000
Ar -9.549957e-01 0.000000e+00 0.000000e+00
1
Step 633000
Ar -1.022808e+00 0.000000e+00 0.000000e+00
1
Step 634000
Ar -1.036948e+00 0.000000e+00 0.000000e+00
1
Step 635000
Ar -1.024989e+00 0.000000e+00 0.000000e+00
1
Step 636000
Ar -1.052408e+00 0.000000e+00 0.000000e+00
1
Step 637000
Ar -1.046097e+00 0.000000e+00 0.000000e+00
1
Step 638000
Ar -1.049192e+00 0.000000e+00 0.000000e+00
1
Step 639000
Ar -1.051142e+00 0.000000e+00 0.000000e+00
1
Step 640000
Ar -1.050009e+00 0.000000e+00 0.000000e+00
1
Step 641000
Ar -1.032770e+00 0.000000e+00 0.000000e+00
1
Step 642000
Ar -1.037833e+00 0.000000e+00 0.000000e+00
1
Step 643000
Ar -1.037260e+00 0.000000e+00 0.000000e+00
1
Step 644000
Ar -1.036713e+00 0.000000e+00 0.000000e+00
1
Step 645000
Ar -1.035724e+00 0.000000e+00 0.000000e+00
1
Step 646000
Ar -9.600884e-01 0.000000e+00 0.000000e+00
1
Step 647000
Ar -9.093593e-01 0.000000e+00 0.000000e+00
1
Step 648000
Ar -9.131278e-01 0.000000e+00 0.000000e+00
1
Step 649000
Ar -1.185692e+00 0.000000e+00 0.000000e+00
1
Step 650000
Ar -1.042487e+00 0.000000e+00 0.000000e+00
1
Step 651000