1
Step 120000
Ar 1.004689e+00 0.000000e+00 0.000000e+00
1
Step 121000
Ar 1.000074e+00 0.000000e+00 0.000000e+00
1
Step 122000
Ar 1.012613e+00 0.000000e+00 0.000000e+00
1
Step 123000
Ar 1.012743e+00 0.000000e+00 0.000000e+00
1
Step 124000
Ar 1.002071e+00 0.000000e+00 0.000000e+00
1
Step 125000
Ar 9.832978e-01 0.000000e+00 0.000000e+00
1
Step 126000
Ar 1.009095e+00 0.000000e+00 0.000000e+00
1
Step 127000
Ar 9.939723e-01 0.000000e+00 0.000000e+00
1
Step 128000
Ar 1.002937e+00 0.000000e+00 0.000000e+00
1
Step 129000
Ar 1.031979e+00 0.000000e+00 0.000000e+00
1
Step 130000
Ar 1.010862e+00 0.000000e+00 0.000000e+00
1
Step 131000
Ar 1.017345e+00 0.000000e+00 0.000000e+00
1
Step 132000
Ar 1.019189e+00 0.000000e+00 0.000000e+00
1
Step 133000
Ar 1.019703e+00 0.000000e+00 0.000000e+00
1
Step 134000
Ar 1.025330e+00 0.000000e+00 0.000000e+00
1
Step 135000
Ar 1.035729e+00 0.000000e+00 0.000000e+00
1
Step 136000
Ar 1.026730e+00 0.000000e+00 0.000000e+00
1
Step 137000
Ar 8.768096e-01 0.000000e+00 0.000000e+00
1
Step 138000
Ar 1.029228e+00 0.000000e+00 0.000000e+00
1
Step 139000
Ar 1.030274e+00 0.000000e+00 0.000000e+00
1
Step 140000
Ar 1.032443e+00 0.000000e+00 0.000000e+00
1
Step 141000
Ar 1.033783e+00 0.000000e+00 0.000000e+00
1
Step 142000
Ar 1.031920e+00 0.000000e+00 0.000000e+00
1
Step 143000
Ar 1.065872e+00 0.000000e+00 0.000000e+00
1
Step 144000
Ar 1.025417e+00 0.000000e+00 0.000000e+00
1
Step 145000
Ar 1.029893e+00 0.000000e+00 0.000000e+00
1
Step 146000
Ar 1.027515e+00 0.000000e+00 0.000000e+00
1
Step 147000
Ar 9.598450e-01 0.000000e+00 0.000000e+00
1
Step 148000
Ar 9.512416e-01 0.000000e+00 0.000000e+00
1
Step 149000
Ar 9.524010e-01 0.000000e+00 0.000000e+00
1
Step 150000
Ar 9.522490e-01 0.000000e+00 0.000000e+00
1
Step 151000
Ar 9.360365e-01 0.000000e+00 0.000000e+00
1
Step 152000
Ar 9.416190e-01 0.000000e+00 0.000000e+00
1
Step 153000
Ar 9.392242e-01 0.000000e+00 0.000000e+00
1
Step 154000
Ar 9.395129e-01 0.000000e+00 0.000000e+00
1
Step 155000
Ar 8.864144e-01 0.000000e+00 0.000000e+00
1
Step 156000
Ar 9.812783e-01 0.000000e+00 0.000000e+00
1
Step 157000
Ar 9.932424e-01 0.000000e+00 0.000000e+00
1
Step 158000
Ar 1.136601e+00 0.000000e+00 0.000000e+00
1
Step 159000
Ar 7.533111e-01 0.000000e+00 0.000000e+00
1
Step 160000
Ar 1.070799e+00 0.000000e+00 0.000000e+00
1
Step 161000
Ar 1.088849e+00 0.000000e+00 0.000000e+00
1
Step 162000
Ar 1.050343e+00 0.000000e+00 0.000000e+00
1
Step 163000
Ar 9.570224e-01 0.000000e+00 0.000000e+00
1
Step 164000
Ar 1.076959e+00 0.000000e+00 0.000000e+00
1
Step 165000
Ar 9.466381e-01 0.000000e+00 0.000000e+00
1
Step 166000
Ar 1.011537e+00 0.000000e+00 0.000000e+00
1
Step 167000
Ar 9.632380e-01 0.000000e+00 0.000000e+00
1
Step 168000
Ar 9.868302e-01 0.000000e+00 0.000000e+00
1
Step 169000
Ar 1.009092e+00 0.000000e+00 0.000000e+00
1
Step 170000
Ar 9.312173e-01 0.000000e+00 0.000000e+00
1
Step 171000
Ar 9.596998e-01 0.000000e+00 0.000000e+00
1
Step 172000
Ar 9.926934e-01 0.000000e+00 0.000000e+00
1
Step 173000
Ar 9.713984e-01 0.000000e+00 0.000000e+00
1
Step 174000
Ar 1.106268e+00 0.000000e+00 0.000000e+00
1
Step 175000
Ar 1.014726e+00 0.000000e+00 0.000000e+00
1
Step 176000
Ar 1.009181e+00 0.000000e+00 0.000000e+00
1
Step 177000
Ar 9.139591e-01 0.000000e+00 0.000000e+00
1
Step 178000
Ar 1.051022e+00 0.000000e+00 0.000000e+00
1
Step 179000
Ar 8.431261e-01 0.000000e+00 0.000000e+00
1
Step 180000
Ar 1.083550e+00 0.000000e+00 0.000000e+00
1
Step 181000
Ar 1.086270e+00 0.000000e+00 0.000000e+00
1
Step 182000
Ar 1.012971e+00 0.000000e+00 0.000000e+00
1
Step 183000
Ar 9.273345e-01 0.000000e+00 0.000000e+00
1
Step 184000
Ar 1.008059e+00 0.000000e+00 0.000000e+00
1
Step 185000
Ar 9.870781e-01 0.000000e+00 0.000000e+00
1
Step 186000
Ar 1.087780e+00 0.000000e+00 0.000000e+00
1
Step 187000
Ar 1.086370e+00 0.000000e+00 0.000000e+00
1
Step 188000
Ar 1.080082e+00 0.000000e+00 0.000000e+00
1
Step 189000
Ar 1.090014e+00 0.000000e+00 0.000000e+00
1
Step 190000
Ar 1.079957e+00 0.000000e+00 0.000000e+00
1
Step 191000
Ar 1.087487e+00 0.000000e+00 0.000000e+00
1
Step 192000
Ar 1.087415e+00 0.000000e+00 0.000000e+00
1
Step 193000
Ar 1.085770e+00 0.000000e+00 0.000000e+00
1
Step 194000
Ar 9.115911e-01 0.000000e+00 0.000000e+00
1
Step 195000
Ar 9.054668e-01 0.000000e+00 0.000000e+00
1
Step 196000
Ar 9.053337e-01 0.000000e+00 0.000000e+00
1
Step 197000
Ar 9.613899e-01 0.000000e+00 0.000000e+00
1
Step 198000
Ar 8.948443e-01 0.000000e+00 0.000000e+00
1
Step 199000
Ar 8.849658e-01 0.000000e+00 0.000000e+00
1
Step 200000
Ar 8.988166e-01 0.000000e+00 0.000000e+00
1
Step 201000
Ar 8.931112e-01 0.000000e+00 0.000000e+00
1
Step 202000
Ar 8.928369e-01 0.000000e+00 0.000000e+00
1
Step 203000
Ar 8.968129e-01 0.000000e+00 0.000000e+00
1
Step 204000
Ar 8.921543e-01 0.000000e+00 0.000000e+00
1
Step 205000
Ar 9.771208e-01 0.000000e+00 0.000000e+00
1
Step 206000
Ar 1.025152e+00 0.000000e+00 0.000000e+00
1
Step 207000
Ar 1.023369e+00 0.000000e+00 0.000000e+00
1
Step 208000
Ar 1.026380e+00 0.000000e+00 0.000000e+00
1
Step 209000
Ar 1.027347e+00 0.000000e+00 0.000000e+00
1
Step 210000
Ar 1.023487e+00 0.000000e+00 0.000000e+00
1
Step 211000
Ar 1.026325e+00 0.000000e+00 0.000000e+00
1
Step 212000
Ar 1.023662e+00 0.000000e+00 0.000000e+00
1
Step 213000
Ar 1.026020e+00 0.000000e+00 0.000000e+00
1
Step 214000
Ar 1.029437e+00 0.000000e+00 0.000000e+00
1
Step 215000
Ar 9.756722e-01 0.000000e+00 0.000000e+00
1
Step 216000
Ar 1.006253e+00 0.000000e+00 0.000000e+00
1
Step 217000
Ar 1.039532e+00 0.000000e+00 0.000000e+00
1
Step 218000
Ar 1.018856e+00 0.000000e+00 0.000000e+00
1
Step 219000
Ar 1.044008e+00 0.000000e+00 0.000000e+00
1
Step 220000
Ar 1.167144e+00 0.000000e+00 0.000000e+00
1
Step 221000
Ar 1.085597e+00 0.000000e+00 0.000000e+00
1
Step 222000
Ar 1.016541e+00 0.000000e+00 0.000000e+00
1
Step 223000
Ar 1.015500e+00 0.000000e+00 0.000000e+00
1
Step 224000
Ar 8.532141e-01 0.000000e+00 0.000000e+00
1
Step 225000
Ar 8.759799e-01 0.000000e+00 0.000000e+00
1
Step 226000
Ar 8.822522e-01 0.000000e+00 0.000000e+00
1
Step 227000
Ar 9.757378e-01 0.000000e+00 0.000000e+00
1
Step 228000
Ar 1.101302e+00 0.000000e+00 0.000000e+00
1
Step 229000
Ar 9.873793e-01 0.000000e+00 0.000000e+00
1
Step 230000
Ar 9.278317e-01 0.000000e+00 0.000000e+00
1
Step 231000
Ar 1.019422e+00 0.000000e+00 0.000000e+00
1
Step 232000
Ar 1.021466e+00 0.000000e+00 0.000000e+00
1
Step 233000
Ar 1.022522e+00 0.000000e+00 0.000000e+00
1
Step 234000
Ar 1.019197e+00 0.000000e+00 0.000000e+00
1
Step 235000
Ar 1.026124e+00 0.000000e+00 0.000000e+00
1
Step 236000
Ar 1.019448e+00 0.000000e+00 0.000000e+00
1
Step 237000
Ar 1.019594e+00 0.000000e+00 0.000000e+00
1
Step 238000
Ar 1.020296e+00 0.000000e+00 0.000000e+00
1
Step 239000
Ar 1.019411e+00 0.000000e+00 0.000000e+00
1
Step 240000
Ar 1.021286e+00 0.000000e+00 0.000000e+00
1
Step 241000
Ar 1.016374e+00 0.000000e+00 0.000000e+00
1
Step 242000
Ar 1.091546e+00 0.000000e+00 0.000000e+00
1
Step 243000
Ar 9.414147e-01 0.000000e+00 0.000000e+00
1
Step 244000
Ar 9.162571e-01 0.000000e+00 0.000000e+00
1
Step 245000
Ar 9.417617e-01 0.000000e+00 0.000000e+00
1
Step 246000
Ar 9.376464e-01 0.000000e+00 0.000000e+00
1
Step 247000
Ar 9.404757e-01 0.000000e+00 0.000000e+00
1
Step 248000
Ar 9.388098e-01 0.000000e+00 0.000000e+00
1
Step 249000
Ar 9.786186e-01 0.000000e+00 0.000000e+00
1
Step 250000
Ar 8.172762e-01 0.000000e+00 0.000000e+00
1
Step 251000
Ar 9.174321e-01 0.000000e+00 0.000000e+00
1
Step 252000
Ar 9.192591e-01 0.000000e+00 0.000000e+00
1
Step 253000
Ar 9.117883e-01 0.000000e+00 0.000000e+00
1
Step 254000
Ar 9.101056e-01 0.000000e+00 0.000000e+00
1
Step 255000
Ar 9.141833e-01 0.000000e+00 0.000000e+00
1
Step 256000
Ar 9.531683e-01 0.000000e+00 0.000000e+00
1
Step 257000
Ar 9.408245e-01 0.000000e+00 0.000000e+00
1
Step 258000
Ar 9.351673e-01 0.000000e+00 0.000000e+00
1
Step 259000
Ar 8.479068e-01 0.000000e+00 0.000000e+00
1
Step 260000
Ar 9.590029e-01 0.000000e+00 0.000000e+00
1
Step 261000
Ar 9.935117e-01 0.000000e+00 0.000000e+00
1
Step 262000
Ar 9.516859e-01 0.000000e+00 0.000000e+00
1
Step 263000
Ar 9.445874e-01 0.000000e+00 0.000000e+00
1
Step 264000
Ar 1.037449e+00 0.000000e+00 0.000000e+00
1
Step 265000
Ar 9.369673e-01 0.000000e+00 0.000000e+00
1
Step 266000
Ar 9.833046e-01 0.000000e+00 0.000000e+00
1
Step 267000
Ar 1.036655e+00 0.000000e+00 0.000000e+00
1
Step 268000
Ar 8.896651e-01 0.000000e+00 0.000000e+00
1
Step 269000
Ar 9.030745e-01 0.000000e+00 0.000000e+00
1
Step 270000
Ar 1.040622e+00 0.000000e+00 0.000000e+00
1
Step 271000
Ar 9.873160e-01 0.000000e+00 0.000000e+00
1
Step 272000
Ar 1.049654e+00 0.000000e+00 0.000000e+00
1
Step 273000
Ar 1.051370e+00 0.000000e+00 0.000000e+00
1
Step 274000
Ar 1.041234e+00 0.000000e+00 0.000000e+00
1
Step 275000
Ar 9.292249e-01 0.000000e+00 0.000000e+00
1
Step 276000
Ar 9.731560e-01 0.000000e+00 0.000000e+00
1
Step 277000
Ar 8.651998e-01 0.000000e+00 0.000000e+00
1
Step 278000
Ar 9.974635e-01 0.000000e+00 0.000000e+00
1
Step 279000
Ar 1.095289e+00 0.000000e+00 0.000000e+00
1
Step 280000
Ar 1.100307e+00 0.000000e+00 0.000000e+00
1
Step 281000
Ar 9.544223e-01 0.000000e+00 0.000000e+00
1
Step 282000
Ar 1.014690e+00 0.000000e+00 0.000000e+00
1
Step 283000
Ar 1.055316e+00 0.000000e+00 0.000000e+00
1
Step 284000
Ar 9.768251e-01 0.000000e+00 0.000000e+00
1
Step 285000
Ar 1.161389e+00 0.000000e+00 0.000000e+00
1
Step 286000
Ar 8.298765e-01 0.000000e+00 0.000000e+00
1
Step 287000
Ar 8.771513e-01 0.000000e+00 0.000000e+00
1
Step 288000
Ar 8.828899e-01 0.000000e+00 0.000000e+00
1
Step 289000
Ar 8.822526e-01 0.000000e+00 0.000000e+00
1
Step 290000
Ar 8.781988e-01 0.000000e+00 0.000000e+00
1
Step 291000
Ar 8.810917e-01 0.000000e+00 0.000000e+00
1
Step 292000
Ar 8.798665e-01 0.000000e+00 0.000000e+00
1
Step 293000
Ar 8.341906e-01 0.000000e+00 0.000000e+00
1
Step 294000
Ar 8.963010e-01 0.000000e+00 0.000000e+00
1
Step 295000
Ar 8.966634e-01 0.000000e+00 0.000000e+00
1
Step 296000
Ar 9.127499e-01 0.000000e+00 0.000000e+00
1
Step 297000
Ar 1.060614e+00 0.000000e+00 0.000000e+00
1
Step 298000
Ar 1.166148e+00 0.000000e+00 0.000000e+00
1
Step 299000
Ar 8.347214e-01 0.000000e+00 0.000000e+00
1
Step 300000
Ar 9.869914e-01 0.000000e+00 0.000000e+00
1
Step 301000
Ar 1.048104e+00 0.000000e+00 0.000000e+00
1
Step 302000
Ar 9.161523e-01 0.000000e+00 0.000000e+00
1
Step 303000
Ar 7.082184e-01 0.000000e+00 0.000000e+00
1
Step 304000
Ar 1.059796e+00 0.000000e+00 0.000000e+00
1
Step 305000
Ar 8.653039e-01 0.000000e+00 0.000000e+00
1
Step 306000
Ar 8.696949e-01 0.000000e+00 0.000000e+00
1
Step 307000
Ar 8.740972e-01 0.000000e+00 0.000000e+00
1
Step 308000
Ar 8.679433e-01 0.000000e+00 0.000000e+00
1
Step 309000
Ar 8.732495e-01 0.000000e+00 0.000000e+00
1
Step 310000
Ar 8.722035e-01 0.000000e+00 0.000000e+00
1
Step 311000
Ar 8.661995e-01 0.000000e+00 0.000000e+00
1
Step 312000
Ar 8.685494e-01 0.000000e+00 0.000000e+00
1
Step 313000
Ar 8.715514e-01 0.000000e+00 0.000000e+00
1
Step 314000
Ar 8.663669e-01 0.000000e+00 0.000000e+00
1
Step 315000
Ar 8.740092e-01 0.000000e+00 0.000000e+00
1
Step 316000
Ar 8.672782e-01 0.000000e+00 0.000000e+00
1
Step 317000
Ar 8.682439e-01 0.000000e+00 0.000000e+00
1
Step 318000
Ar 8.687181e-01 0.000000e+00 0.000000e+00
1
Step 319000
Ar 8.669335e-01 0.000000e+00 0.000000e+00
1
Step 320000
Ar 8.676138e-01 0.000000e+00 0.000000e+00
1
Step 321000
Ar 8.751105e-01 0.000000e+00 0.000000e+00
1
Step 322000
Ar 8.599207e-01 0.000000e+00 0.000000e+00
1
Step 323000
Ar 8.613259e-01 0.000000e+00 0.000000e+00
1
Step 324000
Ar 8.625547e-01 0.000000e+00 0.000000e+00
1
Step 325000
Ar 8.605400e-01 0.000000e+00 0.000000e+00
1
Step 326000
Ar 8.612288e-01 0.000000e+00 0.000000e+00
1
Step 327000
Ar 8.618643e-01 0.000000e+00 0.000000e+00
1
Step 328000
Ar 8.591153e-01 0.000000e+00 0.000000e+00
1
Step 329000
Ar 8.542141e-01 0.000000e+00 0.000000e+00
1
Step 330000
Ar 8.184899e-01 0.000000e+00 0.000000e+00
1
Step 331000
Ar 8.613607e-01 0.000000e+00 0.000000e+00
1
Step 332000
Ar 8.593843e-01 0.000000e+00 0.000000e+00
1
Step 333000
Ar 1.051138e+00 0.000000e+00 0.000000e+00
1
Step 334000
Ar 1.087903e+00 0.000000e+00 0.000000e+00
1
Step 335000
Ar 9.458142e-01 0.000000e+00 0.000000e+00
1
Step 336000
Ar 6.695639e-01 0.000000e+00 0.000000e+00
1
Step 337000
Ar 1.061014e+00 0.000000e+00 0.000000e+00
1
Step 338000
Ar 4.154008e-01 0.000000e+00 0.000000e+00
1
Step 339000
Ar 9.761682e-01 0.000000e+00 0.000000e+00
1
Step 340000
Ar 8.614704e-01 0.000000e+00 0.000000e+00
1
Step 341000
Ar 8.602777e-01 0.000000e+00 0.000000e+00
1
Step 342000
Ar 8.604124e-01 0.000000e+00 0.000000e+00
1
Step 343000
Ar 8.595983e-01 0.000000e+00 0.000000e+00
1
Step 344000
Ar 1.046103e+00 0.000000e+00 0.000000e+00
1
Step 345000
Ar 1.075210e+00 0.000000e+00 0.000000e+00
1
Step 346000
Ar 7.190355e-01 0.000000e+00 0.000000e+00
1
Step 347000
Ar 1.025327e+00 0.000000e+00 0.000000e+00
1
Step 348000
Ar 9.856901e-01 0.000000e+00 0.000000e+00
1
Step 349000
Ar 7.295527e-01 0.000000e+00 0.000000e+00
1
Step 350000
Ar 3.118634e-01 0.000000e+00 0.000000e+00
1
Step 351000
Ar 8.475997e-01 0.000000e+00 0.000000e+00
1
Step 352000
Ar 8.678805e-01 0.000000e+00 0.000000e+00
1
Step 353000
Ar 9.678712e-01 0.000000e+00 0.000000e+00
1
Step 354000
Ar 1.197164e+00 0.000000e+00 0.000000e+00
1
Step 355000
Ar 9.240859e-01 0.000000e+00 0.000000e+00
1
Step 356000
Ar 1.079111e+00 0.000000e+00 0.000000e+00
1
Step 357000
Ar 9.267890e-01 0.000000e+00 0.000000e+00
1
Step 358000
Ar 6.489158e-01 0.000000e+00 0.000000e+00
1
Step 359000
Ar 1.114003e+00 0.000000e+00 0.000000e+00
1
Step 360000
Ar 1.052852e+00 0.000000e+00 0.000000e+00
1
Step 361000
Ar 4.886316e-01 0.000000e+00 0.000000e+00
1
Step 362000
Ar 9.565869e-01 0.000000e+00 0.000000e+00
1
Step 363000
Ar 1.215090e+00 0.000000e+00 0.000000e+00
1
Step 364000
Ar 1.172110e+00 0.000000e+00 0.000000e+00
1
Step 365000
Ar 1.156237e+00 0.000000e+00 0.000000e+00
1
Step 366000
Ar 1.222118e+00 0.000000e+00 0.000000e+00
1
Step 367000
Ar 1.009083e+00 0.000000e+00 0.000000e+00
1
Step 368000
Ar 8.500880e-01 0.000000e+00 0.000000e+00
1
Step 369000
Ar 6.059649e-01 0.000000e+00 0.000000e+00
1
Step 370000
Ar 8.101007e-01 0.000000e+00 0.000000e+00
1
Step 371000
Ar 7.975940e-01 0.000000e+00 0.000000e+00
1
Step 372000
Ar 1.052487e+00 0.000000e+00 0.000000e+00
1
Step 373000
Ar 1.163533e+00 0.000000e+00 0.000000e+00
1
Step 374000
Ar 7.466405e-01 0.000000e+00 0.000000e+00
1
Step 375000
Ar 1.136822e+00 0.000000e+00 0.000000e+00
1
Step 376000
Ar 8.662835e-01 0.000000e+00 0.000000e+00
1
Step 377000
Ar 7.526147e-01 0.000000e+00 0.000000e+00
1
Step 378000
Ar -1.004538e+00 0.000000e+00 0.000000e+00
1
Step 379000
Ar -9.797952e-01 0.000000e+00 0.000000e+00
1
Step 380000
Ar -9.725925e-01 0.000000e+00 0.000000e+00
1
Step 381000
Ar -9.731521e-01 0.000000e+00 0.000000e+00
1
Step 382000
Ar -9.673314e-01 0.000000e+00 0.000000e+00
1
Step 383000
Ar -9.819838e-01 0.000000e+00 0.000000e+00
1
Step 384000
Ar -9.778270e-01 0.000000e+00 0.000000e+00
1
Step 385000
Ar -9.767586e-01 0.000000e+00 0.000000e+00
1
Step 386000
Ar -9.817100e-01 0.000000e+00 0.000000e+00
1
Step 387000
Ar -9.800394e-01 0.000000e+00 0.000000e+00
1
Step 388000
Ar -9.735323e-01 0.000000e+00 0.000000e+00
1
Step 389000
Ar -9.680211e-01 0.000000e+00 0.000000e+00
1
Step 390000
Ar -9.717597e-01 0.000000e+00 0.000000e+00
1
Step 391000
Ar -9.628022e-01 0.000000e+00 0.000000e+00
1
Step 392000
Ar -9.672805e-01 0.000000e+00 0.000000e+00
1
Step 393000
Ar -1.020370e+00 0.000000e+00 0.000000e+00
1
Step 394000
Ar -1.022046e+00 0.000000e+00 0.000000e+00
1
Step 395000
Ar -1.029061e+00 0.000000e+00 0.000000e+00
1
Step 396000
Ar -1.019974e+00 0.000000e+00 0.000000e+00
1
Step 397000
Ar -1.021021e+00 0.000000e+00 0.000000e+00
1
Step 398000
Ar -1.018322e+00 0.000000e+00 0.000000e+00
1
Step 399000
Ar -1.016354e+00 0.000000e+00 0.000000e+00
1
Step 400000
Ar -1.019918e+00 0.000000e+00 0.000000e+00
1
Step 401000
Ar -1.019545e+00 0.000000e+00 0.000000e+00
1
Step 402000
Ar -1.026251e+00 0.000000e+00 0.000000e+00
1
Step 403000
Ar -1.020302e+00 0.000000e+00 0.000000e+00
1
Step 404000
Ar -1.022997e+00 0.000000e+00 0.000000e+00
1
Step 405000
Ar -1.020311e+00 0.000000e+00 0.000000e+00
1
Step 406000
Ar -1.021209e+00 0.000000e+00 0.000000e+00
1
Step 407000
Ar -9.194005e-01 0.000000e+00 0.000000e+00
1
Step 408000
Ar -1.049904e+00 0.000000e+00 0.000000e+00
1
Step 409000
Ar -1.047700e+00 0.000000e+00 0.000000e+00
1
Step 410000
Ar -1.053847e+00 0.000000e+00 0.000000e+00
1
Step 411000
Ar -1.055882e+00 0.000000e+00 0.000000e+00
1
Step 412000
Ar -1.057001e+00 0.000000e+00 0.000000e+00
1
Step 413000
Ar -1.061566e+00 0.000000e+00 0.000000e+00
1
Step 414000
Ar -1.055050e+00 0.000000e+00 0.000000e+00
1
Step 415000
Ar -1.052946e+00 0.000000e+00 0.000000e+00
1
Step 416000
Ar -1.063622e+00 0.000000e+00 0.000000e+00
1
Step 417000
Ar -1.016567e+00 0.000000e+00 0.000000e+00
1
Step 418000
Ar -9.571091e-01 0.000000e+00 0.000000e+00
1
Step 419000
Ar -1.063731e+00 0.000000e+00 0.000000e+00
1
Step 420000
Ar -1.065648e+00 0.000000e+00 0.000000e+00
1
Step 421000
Ar -1.061892e+00 0.000000e+00 0.000000e+00
1
Step 422000
Ar -1.020395e+00 0.000000e+00 0.000000e+00
1
Step 423000
Ar -1.001982e+00 0.000000e+00 0.000000e+00
1
Step 424000
Ar -9.854593e-01 0.000000e+00 0.000000e+00
1
Step 425000
Ar -9.461064e-01 0.000000e+00 0.000000e+00
1
Step 426000
Ar -1.020415e+00 0.000000e+00 0.000000e+00
1
Step 427000
Ar -9.588432e-01 0.000000e+00 0.000000e+00
1
Step 428000
Ar -9.561575e-01 0.000000e+00 0.000000e+00
1
Step 429000
Ar -9.519785e-01 0.000000e+00 0.000000e+00
1
Step 430000
Ar -9.335170e-01 0.000000e+00 0.000000e+00
1
Step 431000
Ar -9.341969e-01 0.000000e+00 0.000000e+00
1
Step 432000
Ar -9.333865e-01 0.000000e+00 0.000000e+00
1
Step 433000
Ar -9.308986e-01 0.000000e+00 0.000000e+00
1
Step 434000
Ar -9.264333e-01 0.000000e+00 0.000000e+00
1
Step 435000
Ar -9.290894e-01 0.000000e+00 0.000000e+00
1
Step 436000
Ar -9.278848e-01 0.000000e+00 0.000000e+00
1
Step 437000
Ar -9.297358e-01 0.000000e+00 0.000000e+00
1
Step 438000
Ar -9.195491e-01 0.000000e+00 0.000000e+00
1
Step 439000
Ar -9.183052e-01 0.000000e+00 0.000000e+00
1
Step 440000
Ar -9.219874e-01 0.000000e+00 0.000000e+00
1
Step 441000
Ar -9.184129e-01 0.000000e+00 0.000000e+00
1
Step 442000
Ar -9.213739e-01 0.000000e+00 0.000000e+00
1
Step 443000
Ar -9.241142e-01 0.000000e+00 0.000000e+00
1
Step 444000
Ar -9.183701e-01 0.000000e+00 0.000000e+00
1
Step 445000
Ar -9.050578e-01 0.000000e+00 0.000000e+00
1
Step 446000
Ar -9.116903e-01 0.000000e+00 0.000000e+00
1
Step 447000
Ar -1.036059e+00 0.000000e+00 0.000000e+00
1
Step 448000
Ar -9.059664e-01 0.000000e+00 0.000000e+00
1
Step 449000
Ar -9.750042e-01 0.000000e+00 0.000000e+00
1
Step 450000
Ar -1.119851e+00 0.000000e+00 0.000000e+00
1
Step 451000
Ar -9.545043e-01 0.000000e+00 0.000000e+00
1
Step 452000
Ar -9.558524e-01 0.000000e+00 0.000000e+00
1
Step 453000
Ar -9.676234e-01 0.000000e+00 0.000000e+00
1
Step 454000
Ar -1.008467e+00 0.000000e+00 0.000000e+00
1
Step 455000
Ar -1.126378e+00 0.000000e+00 0.000000e+00
1
Step 456000
Ar -1.037232e+00 0.000000e+00 0.000000e+00
1
Step 457000
Ar -1.032401e+00 0.000000e+00 0.000000e+00
1
Step 458000
Ar -9.721818e-01 0.000000e+00 0.000000e+00
1
Step 459000
Ar -1.091135e+00 0.000000e+00 0.000000e+00
1
Step 460000
Ar -1.082728e+00 0.000000e+00 0.000000e+00
1
Step 461000
Ar -1.038826e+00 0.000000e+00 0.000000e+00
1
Step 462000
Ar -1.006989e+00 0.000000e+00 0.000000e+00
1
Step 463000
Ar -1.038874e+00 0.000000e+00 0.000000e+00
1
Step 464000
Ar -1.046356e+00 0.000000e+00 0.000000e+00
1
Step 465000
Ar -1.043704e+00 0.000000e+00 0.000000e+00
1
Step 466000
Ar -1.036430e+00 0.000000e+00 0.000000e+00
1
Step 467000
Ar -1.038267e+00 0.000000e+00 0.000000e+00
1
Step 468000
Ar -1.051861e+00 0.000000e+00 0.000000e+00
1
Step 469000
Ar -1.045709e+00 0.000000e+00 0.000000e+00
1
Step 470000
Ar -1.039289e+00 0.000000e+00 0.000000e+00
1
Step 471000
Ar -8.822487e-01 0.000000e+00 0.000000e+00
1
Step 472000
Ar -1.085465e+00 0.000000e+00 0.000000e+00
1
Step 473000
Ar -1.081458e+00 0.000000e+00 0.000000e+00
1
Step 474000
Ar -1.079073e+00 0.000000e+00 0.000000e+00
1
Step 475000
Ar -1.037698e+00 0.000000e+00 0.000000e+00
1
Step 476000
Ar -9.709694e-01 0.000000e+00 0.000000e+00
1
Step 477000
Ar -9.548323e-01 0.000000e+00 0.000000e+00
1
Step 478000
Ar -9.124925e-01 0.000000e+00 0.000000e+00
1
Step 479000
Ar -9.908459e-01 0.000000e+00 0.000000e+00
1
Step 480000
Ar -1.105935e+00 0.000000e+00 0.000000e+00
1
Step 481000
Ar -9.506585e-01 0.000000e+00 0.000000e+00
1
Step 482000
Ar -1.037934e+00 0.000000e+00 0.000000e+00
1
Step 483000
Ar -1.039167e+00 0.000000e+00 0.000000e+00
1
Step 484000
Ar -8.780862e-01 0.000000e+00 0.000000e+00
1
Step 485000
Ar -9.255251e-01 0.000000e+00 0.000000e+00
1
Step 486000
Ar -8.658671e-01 0.000000e+00 0.000000e+00
1
Step 487000
Ar -1.060681e+00 0.000000e+00 0.000000e+00
1
Step 488000
Ar -8.688673e-01 0.000000e+00 0.000000e+00
1
Step 489000
Ar -8.660919e-01 0.000000e+00 0.000000e+00
1
Step 490000
Ar -8.632930e-01 0.000000e+00 0.000000e+00
1
Step 491000
Ar -8.679009e-01 0.000000e+00 0.000000e+00
1
Step 492000
Ar -8.708170e-01 0.000000e+00 0.000000e+00
1
Step 493000
Ar -8.654917e-01 0.000000e+00 0.000000e+00
1
Step 494000
Ar -8.663219e-01 0.000000e+00 0.000000e+00
1
Step 495000
Ar -8.669121e-01 0.000000e+00 0.000000e+00
1
Step 496000
Ar -8.654095e-01 0.000000e+00 0.000000e+00
1
Step 497000
Ar -8.631859e-01 0.000000e+00 0.000000e+00
1
Step 498000
Ar -9.528920e-01 0.000000e+00 0.000000e+00
1
Step 499000
Ar -6.427544e-01 0.000000e+00 0.000000e+00
1
Step 500000
Ar -1.091438e+00 0.000000e+00 0.000000e+00
1
Step 501000
Ar -1.141336e+00 0.000000e+00 0.000000e+00
1
Step 502000
Ar -1.059719e+00 0.000000e+00 0.000000e+00
1
Step 503000
Ar -9.690130e-01 0.000000e+00 0.000000e+00
1
Step 504000
Ar -1.098438e+00 0.000000e+00 0.000000e+00
1
Step 505000
Ar -7.944035e-01 0.000000e+00 0.000000e+00
1
Step 506000
Ar -1.099787e+00 0.000000e+00 0.000000e+00
1
Step 507000
Ar -1.069186e+00 0.000000e+00 0.000000e+00
1
Step 508000
Ar -8.707923e-01 0.000000e+00 0.000000e+00
1
Step 509000
Ar -9.121692e-01 0.000000e+00 0.000000e+00
1
Step 510000
Ar -9.853542e-01 0.000000e+00 0.000000e+00
1
Step 511000
Ar -8.405682e-01 0.000000e+00 0.000000e+00
1
Step 512000
Ar -8.109846e-01 0.000000e+00 0.000000e+00
1
Step 513000
Ar -1.007564e+00 0.000000e+00 0.000000e+00
1
Step 514000
Ar -1.011356e+00 0.000000e+00 0.000000e+00
1
Step 515000
Ar -1.195142e+00 0.000000e+00 0.000000e+00
1
Step 516000
Ar -9.907271e-01 0.000000e+00 0.000000e+00
1
Step 517000
Ar -9.880925e-01 0.000000e+00 0.000000e+00
1
Step 518000
Ar -9.115657e-01 0.000000e+00 0.000000e+00
1
Step 519000
Ar -9.193956e-01 0.000000e+00 0.000000e+00
1
Step 520000
Ar -8.843434e-01 0.000000e+00 0.000000e+00
1
Step 521000
Ar -8.329817e-01 0.000000e+00 0.000000e+00
1
Step 522000
Ar -9.753481e-01 0.000000e+00 0.000000e+00
1
Step 523000
Ar -7.812110e-01 0.000000e+00 0.000000e+00
1
Step 524000
Ar -8.548139e-01 0.000000e+00 0.000000e+00
1
Step 525000
Ar -8.567877e-01 0.000000e+00 0.000000e+00
1
Step 526000
Ar -8.589502e-01 0.000000e+00 0.000000e+00
1
Step 527000
Ar -7.769006e-01 0.000000e+00 0.000000e+00
1
Step 528000
Ar -8.764870e-01 0.000000e+00 0.000000e+00
1
Step 529000
Ar -8.563898e-01 0.000000e+00 0.000000e+00
1
Step 530000
Ar -1.101395e+00 0.000000e+00 0.000000e+00
1
Step 531000
Ar -1.016087e+00 0.000000e+00 0.000000e+00
1
Step 532000
Ar -1.008727e+00 0.000000e+00 0.000000e+00
1
Step 533000
Ar -8.769843e-01 0.000000e+00 0.000000e+00
1
Step 534000
Ar -9.074633e-01 0.000000e+00 0.000000e+00
1
Step 535000
Ar -1.102280e+00 0.000000e+00 0.000000e+00
1
Step 536000
Ar -8.484175e-01 0.000000e+00 0.000000e+00
1
Step 537000
Ar -8.465334e-01 0.000000e+00 0.000000e+00
1
Step 538000
Ar -8.447310e-01 0.000000e+00 0.000000e+00
1
Step 539000
Ar -1.049218e+00 0.000000e+00 0.000000e+00
1
Step 540000
Ar -9.080835e-01 0.000000e+00 0.000000e+00
1
Step 541000
Ar -8.303781e-01 0.000000e+00 0.000000e+00
1
Step 542000
Ar -9.115594e-01 0.000000e+00 0.000000e+00
1
Step 543000
Ar -9.039732e-01 0.000000e+00 0.000000e+00
1
Step 544000
Ar -1.106980e+00 0.000000e+00 0.000000e+00
1
Step 545000
Ar -9.139088e-01 0.000000e+00 0.000000e+00
1
Step 546000
Ar -9.097079e-01 0.000000e+00 0.000000e+00
1
Step 547000
Ar -9.549282e-01 0.000000e+00 0.000000e+00
1
Step 548000
Ar -1.036701e+00 0.000000e+00 0.000000e+00
1
Step 549000
Ar -1.202983e+00 0.000000e+00 0.000000e+00
1
Step 550000
Ar -1.055372e+00 0.000000e+00 0.000000e+00
1
Step 551000
Ar -8.670862e-01 0.000000e+00 0.000000e+00
1
Step 552000
Ar -9.078927e-01 0.000000e+00 0.000000e+00
1
Step 553000
Ar -1.292338e+00 0.000000e+00 0.000000e+00
1
Step 554000
Ar -1.165097e+00 0.000000e+00 0.000000e+00
1
Step 555000
Ar -8.016177e-01 0.000000e+00 0.000000e+00
1
Step 556000
Ar -1.076800e+00 0.000000e+00 0.000000e+00
1
Step 557000
Ar -9.597308e-01 0.000000e+00 0.000000e+00
1
Step 558000
Ar -9.226693e-01 0.000000e+00 0.000000e+00
1
Step 559000
Ar -8.852323e-01 0.000000e+00 0.000000e+00
1
Step 560000
Ar -9.460414e-01 0.000000e+00 0.000000e+00
1
Step 561000
Ar -8.817585e-01 0.000000e+00 0.000000e+00
1
Step 562000
Ar -1.103517e+00 0.000000e+00 0.000000e+00
1
Step 563000
Ar -7.420203e-01 0.000000e+00 0.000000e+00
1
Step 564000
Ar -1.045546e+00 0.000000e+00 0.000000e+00
1
Step 565000
Ar -1.022106e+00 0.000000e+00 0.000000e+00
1
Step 566000
Ar -8.462211e-01 0.000000e+00 0.000000e+00
1
Step 567000
Ar -8.493369e-01 0.000000e+00 0.000000e+00
1
Step 568000
Ar -1.081034e+00 0.000000e+00 0.000000e+00
1
Step 569000
Ar -1.088468e+00 0.000000e+00 0.000000e+00
1
Step 570000
Ar -1.117628e+00 0.000000e+00 0.000000e+00
1
Step 571000
Ar -8.877349e-01 0.000000e+00 0.000000e+00
1
Step 572000
Ar -1.123818e+00 0.000000e+00 0.000000e+00
1
Step 573000
Ar -1.221524e+00 0.000000e+00 0.000000e+00
1
Step 574000
Ar -7.289096e-01 0.000000e+00 0.000000e+00
1
Step 575000
Ar -1.081705e+00 0.000000e+00 0.000000e+00
1
Step 576000
Ar -8.511572e-01 0.000000e+00 0.000000e+00
1
Step 577000
Ar -1.295977e+00 0.000000e+00 0.000000e+00
1
Step 578000
Ar -8.327134e-01 0.000000e+00 0.000000e+00
1
Step 579000
Ar -1.110135e+00 0.000000e+00 0.000000e+00
1
Step 580000
Ar -9.251291e-01 0.000000e+00 0.000000e+00
1
Step 581000
Ar -1.076289e+00 0.000000e+00 0.000000e+00
1
Step 582000
Ar -1.335467e+00 0.000000e+00 0.000000e+00
1
Step 583000
Ar -8.594673e-01 0.000000e+00 0.000000e+00
1
Step 584000
Ar -9.840128e-01 0.000000e+00 0.000000e+00
1
Step 585000
Ar -1.100432e+00 0.000000e+00 0.000000e+00
1
Step 586000
Ar -1.100543e+00 0.000000e+00 0.000000e+00
1
Step 587000
Ar -1.168221e+00 0.000000e+00 0.000000e+00
1
Step 588000
Ar -7.185927e-01 0.000000e+00 0.000000e+00
1
Step 589000
Ar -7.687193e-01 0.000000e+00 0.000000e+00
1
Step 590000
Ar -1.115788e+00 0.000000e+00 0.000000e+00
1
Step 591000
Ar -6.716925e-01 0.000000e+00 0.000000e+00
1
Step 592000
Ar -8.664794e-01 0.000000e+00 0.000000e+00
1
Step 593000
Ar -9.594656e-01 0.000000e+00 0.000000e+00
1
Step 594000
Ar -1.039560e+00 0.000000e+00 0.000000e+00
1
Step 595000
Ar -8.067287e-01 0.000000e+00 0.000000e+00
1
Step 596000
Ar -8.063312e-01 0.000000e+00 0.000000e+00
1
Step 597000
Ar -8.076632e-01 0.000000e+00 0.000000e+00
1
Step 598000
Ar -8.032677e-01 0.000000e+00 0.000000e+00
1
Step 599000
Ar -8.081454e-01 0.000000e+00 0.000000e+00
1
Step 600000
Ar -8.070302e-01 0.000000e+00 0.000000e+00
1
Step 601000
Ar -8.069664e-01 0.000000e+00 0.000000e+00
1
Step 602000
Ar -8.064220e-01 0.000000e+00 0.000000e+00
1
Step 603000
Ar -8.027381e-01 0.000000e+00 0.000000e+00
1
Step 604000
Ar -8.061187e-01 0.000000e+00 0.000000e+00
1
Step 605000
Ar -8.051066e-01 0.000000e+00 0.000000e+00
1
Step 606000
Ar -8.035200e-01 0.000000e+00 0.000000e+00
1
Step 607000
Ar -8.092168e-01 0.000000e+00 0.000000e+00
1
Step 608000
Ar -8.063544e-01 0.000000e+00 0.000000e+00
1
Step 609000
Ar -8.067066e-01 0.000000e+00 0.000000e+00
1
Step 610000
Ar -8.026481e-01 0.000000e+00 0.000000e+00
1
Step 611000
Ar -8.084864e-01 0.000000e+00 0.000000e+00
1
Step 612000
Ar -1.145377e+00 0.000000e+00 0.000000e+00
1
Step 613000
Ar -8.284102e-01 0.000000e+00 0.000000e+00
1
Step 614000
Ar -8.842350e-01 0.000000e+00 0.000000e+00
1
Step 615000
Ar -7.909285e-01 0.000000e+00 0.000000e+00
1
Step 616000
Ar -7.535536e-01 0.000000e+00 0.000000e+00
1
Step 617000
Ar -9.210591e-01 0.000000e+00 0.000000e+00
1
Step 618000
Ar -1.113804e+00 0.000000e+00 0.000000e+00
1
Step 619000
Ar -6.222705e-01 0.000000e+00 0.000000e+00
1
Step 620000
Ar -9.558963e-01 0.000000e+00 0.000000e+00
1
Step 621000
Ar -8.677461e-01 0.000000e+00 0.000000e+00
1
Step 622000
Ar -8.433825e-01 0.000000e+00 0.000000e+00
1
Step 623000
Ar -8.387703e-01 0.000000e+00 0.000000e+00
1
Step 624000
Ar -8.408951e-01 0.000000e+00 0.000000e+00
1
Step 625000
Ar -1.071731e+00 0.000000e+00 0.000000e+00
1
Step 626000
Ar 8.886742e-01 0.000000e+00 0.000000e+00
1
Step 627000
Ar 5.537869e-01 0.000000e+00 0.000000e+00
1
Step 628000
Ar 8.868535e-01 0.000000e+00 0.000000e+00
1
Step 629000
Ar 9.386914e-01 0.000000e+00 0.000000e+00
1
Step 630000
Ar 1.071281e+00 0.000000e+00 0.000000e+00
1
Step 631000
Ar 1.164336e+00 0.000000e+00 0.000000e+00
1
Step 632000
Ar 1.160853e+00 0.000000e+00 0.000000e+00
1
Step 633000
Ar 1.159496e+00 0.000000e+00 0.000000e+00
1
Step 634000
Ar 7.175889e-01 0.000000e+00 0.000000e+00
1
Step 635000
Ar 9.371042e-01 0.000000e+00 0.000000e+00
1
Step 636000
Ar 8.377234e-01 0.000000e+00 0.000000e+00
1
Step 637000
Ar 1.007352e+00 0.000000e+00 0.000000e+00
1
Step 638000
Ar 1.064144e+00 0.000000e+00 0.000000e+00
1
Step 639000
Ar 1.085616e+00 0.000000e+00 0.000000e+00
1
Step 640000
Ar 1.112406e+00 0.000000e+00 0.000000e+00
1
Step 641000
Ar 9.637404e-01 0.000000e+00 0.000000e+00
1
Step 642000
Ar 6.621839e-01 0.000000e+00 0.000000e+00
1
Step 643000
Ar 9.962775e-01 0.000000e+00 0.000000e+00
1
Step 644000
Ar -8.759304e-01 0.000000e+00 0.000000e+00
1
Step 645000
Ar -8.315676e-01 0.000000e+00 0.000000e+00
1
Step 646000
Ar -8.395386e-01 0.000000e+00 0.000000e+00
1
Step 647000
Ar -8.104550e-01 0.000000e+00 0.000000e+00
1
Step 648000
Ar 1.066736e+00 0.000000e+00 0.000000e+00
1
Step 649000
Ar 8.875820e-01 0.000000e+00 0.000000e+00
1
Step 650000
Ar -7.247600e-01 0.000000e+00 0.000000e+00
1