1
Step 120000
Ar 9.089539e-01 0.000000e+00 0.000000e+00
1
Step 121000
Ar 1.129987e+00 0.000000e+00 0.000000e+00
1
Step 122000
Ar 1.144734e+00 0.000000e+00 0.000000e+00
1
Step 123000
Ar 1.257419e+00 0.000000e+00 0.000000e+00
1
Step 124000
Ar 1.014850e+00 0.000000e+00 0.000000e+00
1
Step 125000
Ar 7.663693e-01 0.000000e+00 0.000000e+00
1
Step 126000
Ar 9.843796e-01 0.000000e+00 0.000000e+00
1
Step 127000
Ar 9.439738e-01 0.000000e+00 0.000000e+00
1
Step 128000
Ar 9.246275e-01 0.000000e+00 0.000000e+00
1
Step 129000
Ar 1.045869e+00 0.000000e+00 0.000000e+00
1
Step 130000
Ar 1.067123e+00 0.000000e+00 0.000000e+00
1
Step 131000
Ar 1.077486e+00 0.000000e+00 0.000000e+00
1
Step 132000
Ar 1.097461e+00 0.000000e+00 0.000000e+00
1
Step 133000
Ar 1.108095e+00 0.000000e+00 0.000000e+00
1
Step 134000
Ar 8.070956e-01 0.000000e+00 0.000000e+00
1
Step 135000
Ar 7.613833e-01 0.000000e+00 0.000000e+00
1
Step 136000
Ar 7.303730e-01 0.000000e+00 0.000000e+00
1
Step 137000
Ar 5.884075e-01 0.000000e+00 0.000000e+00
1
Step 138000
Ar 7.420555e-01 0.000000e+00 0.000000e+00
1
Step 139000
Ar 6.948196e-01 0.000000e+00 0.000000e+00
1
Step 140000
Ar 7.191769e-01 0.000000e+00 0.000000e+00
1
Step 141000
Ar 7.024028e-01 0.000000e+00 0.000000e+00
1
Step 142000
Ar 7.190806e-01 0.000000e+00 0.000000e+00
1
Step 143000
Ar 9.544570e-01 0.000000e+00 0.000000e+00
1
Step 144000
Ar 1.002387e+00 0.000000e+00 0.000000e+00
1
Step 145000
Ar 1.028492e+00 0.000000e+00 0.000000e+00
1
Step 146000
Ar 1.199914e+00 0.000000e+00 0.000000e+00
1
Step 147000
Ar 8.963256e-01 0.000000e+00 0.000000e+00
1
Step 148000
Ar 8.303055e-01 0.000000e+00 0.000000e+00
1
Step 149000
Ar 8.957487e-01 0.000000e+00 0.000000e+00
1
Step 150000
Ar 7.870447e-01 0.000000e+00 0.000000e+00
1
Step 151000
Ar 7.980443e-01 0.000000e+00 0.000000e+00
1
Step 152000
Ar 8.496894e-01 0.000000e+00 0.000000e+00
1
Step 153000
Ar 8.392083e-01 0.000000e+00 0.000000e+00
1
Step 154000
Ar 8.735245e-01 0.000000e+00 0.000000e+00
1
Step 155000
Ar 8.840369e-01 0.000000e+00 0.000000e+00
1
Step 156000
Ar 8.177395e-01 0.000000e+00 0.000000e+00
1
Step 157000
Ar 8.613703e-01 0.000000e+00 0.000000e+00
1
Step 158000
Ar 7.704138e-01 0.000000e+00 0.000000e+00
1
Step 159000
Ar 9.713621e-01 0.000000e+00 0.000000e+00
1
Step 160000
Ar 1.164471e+00 0.000000e+00 0.000000e+00
1
Step 161000
Ar 1.084406e+00 0.000000e+00 0.000000e+00
1
Step 162000
Ar 9.921770e-01 0.000000e+00 0.000000e+00
1
Step 163000
Ar 1.058642e+00 0.000000e+00 0.000000e+00
1
Step 164000
Ar 9.113106e-01 0.000000e+00 0.000000e+00
1
Step 165000
Ar 9.284400e-01 0.000000e+00 0.000000e+00
1
Step 166000
Ar 1.036973e+00 0.000000e+00 0.000000e+00
1
Step 167000
Ar 1.236084e+00 0.000000e+00 0.000000e+00
1
Step 168000
Ar 1.278991e+00 0.000000e+00 0.000000e+00
1
Step 169000
Ar 1.245494e+00 0.000000e+00 0.000000e+00
1
Step 170000
Ar 1.266727e+00 0.000000e+00 0.000000e+00
1
Step 171000
Ar 1.292958e+00 0.000000e+00 0.000000e+00
1
Step 172000
Ar 1.322125e+00 0.000000e+00 0.000000e+00
1
Step 173000
Ar 1.304318e+00 0.000000e+00 0.000000e+00
1
Step 174000
Ar 1.155627e+00 0.000000e+00 0.000000e+00
1
Step 175000
Ar 1.116774e+00 0.000000e+00 0.000000e+00
1
Step 176000
Ar 1.083244e+00 0.000000e+00 0.000000e+00
1
Step 177000
Ar 1.190462e+00 0.000000e+00 0.000000e+00
1
Step 178000
Ar 1.182093e+00 0.000000e+00 0.000000e+00
1
Step 179000
Ar 1.147842e+00 0.000000e+00 0.000000e+00
1
Step 180000
Ar 1.092146e+00 0.000000e+00 0.000000e+00
1
Step 181000
Ar 1.120017e+00 0.000000e+00 0.000000e+00
1
Step 182000
Ar 1.137000e+00 0.000000e+00 0.000000e+00
1
Step 183000
Ar 1.413854e+00 0.000000e+00 0.000000e+00
1
Step 184000
Ar 1.099938e+00 0.000000e+00 0.000000e+00
1
Step 185000
Ar 1.172464e+00 0.000000e+00 0.000000e+00
1
Step 186000
Ar 1.219000e+00 0.000000e+00 0.000000e+00
1
Step 187000
Ar 1.208561e+00 0.000000e+00 0.000000e+00
1
Step 188000
Ar 1.207614e+00 0.000000e+00 0.000000e+00
1
Step 189000
Ar 1.323399e+00 0.000000e+00 0.000000e+00
1
Step 190000
Ar 1.352942e+00 0.000000e+00 0.000000e+00
1
Step 191000
Ar 1.392378e+00 0.000000e+00 0.000000e+00
1
Step 192000
Ar 1.373378e+00 0.000000e+00 0.000000e+00
1
Step 193000
Ar 1.330984e+00 0.000000e+00 0.000000e+00
1
Step 194000
Ar 1.384776e+00 0.000000e+00 0.000000e+00
1
Step 195000
Ar 1.466647e+00 0.000000e+00 0.000000e+00
1
Step 196000
Ar 1.431577e+00 0.000000e+00 0.000000e+00
1
Step 197000
Ar 8.185460e-01 0.000000e+00 0.000000e+00
1
Step 198000
Ar 9.667722e-01 0.000000e+00 0.000000e+00
1
Step 199000
Ar 9.360476e-01 0.000000e+00 0.000000e+00
1
Step 200000
Ar 9.502804e-01 0.000000e+00 0.000000e+00
1
Step 201000
Ar 8.780764e-01 0.000000e+00 0.000000e+00
1
Step 202000
Ar 8.503477e-01 0.000000e+00 0.000000e+00
1
Step 203000
Ar 8.288213e-01 0.000000e+00 0.000000e+00
1
Step 204000
Ar 7.435027e-01 0.000000e+00 0.000000e+00
1
Step 205000
Ar 8.097985e-01 0.000000e+00 0.000000e+00
1
Step 206000
Ar 9.178125e-01 0.000000e+00 0.000000e+00
1
Step 207000
Ar 8.591447e-01 0.000000e+00 0.000000e+00
1
Step 208000
Ar 9.037092e-01 0.000000e+00 0.000000e+00
1
Step 209000
Ar 1.005286e+00 0.000000e+00 0.000000e+00
1
Step 210000
Ar 1.060610e+00 0.000000e+00 0.000000e+00
1
Step 211000
Ar 9.811963e-01 0.000000e+00 0.000000e+00
1
Step 212000
Ar 1.025946e+00 0.000000e+00 0.000000e+00
1
Step 213000
Ar 9.944454e-01 0.000000e+00 0.000000e+00
1
Step 214000
Ar 1.072736e+00 0.000000e+00 0.000000e+00
1
Step 215000
Ar 1.108441e+00 0.000000e+00 0.000000e+00
1
Step 216000
Ar 1.015114e+00 0.000000e+00 0.000000e+00
1
Step 217000
Ar 9.149515e-01 0.000000e+00 0.000000e+00
1
Step 218000
Ar 7.582972e-01 0.000000e+00 0.000000e+00
1
Step 219000
Ar 5.666809e-01 0.000000e+00 0.000000e+00
1
Step 220000
Ar 5.287533e-01 0.000000e+00 0.000000e+00
1
Step 221000
Ar 5.519147e-01 0.000000e+00 0.000000e+00
1
Step 222000
Ar 5.174369e-01 0.000000e+00 0.000000e+00
1
Step 223000
Ar 4.615089e-01 0.000000e+00 0.000000e+00
1
Step 224000
Ar 6.797287e-01 0.000000e+00 0.000000e+00
1
Step 225000
Ar 6.541506e-01 0.000000e+00 0.000000e+00
1
Step 226000
Ar 6.653112e-01 0.000000e+00 0.000000e+00
1
Step 227000
Ar 6.827437e-01 0.000000e+00 0.000000e+00
1
Step 228000
Ar 7.066145e-01 0.000000e+00 0.000000e+00
1
Step 229000
Ar 6.104167e-01 0.000000e+00 0.000000e+00
1
Step 230000
Ar 6.380883e-01 0.000000e+00 0.000000e+00
1
Step 231000
Ar 6.475844e-01 0.000000e+00 0.000000e+00
1
Step 232000
Ar 4.267168e-01 0.000000e+00 0.000000e+00
1
Step 233000
Ar -1.029075e+00 0.000000e+00 0.000000e+00
1
Step 234000
Ar -1.156321e+00 0.000000e+00 0.000000e+00
1
Step 235000
Ar -1.210566e+00 0.000000e+00 0.000000e+00
1
Step 236000
Ar -1.187512e+00 0.000000e+00 0.000000e+00
1
Step 237000
Ar -9.294279e-01 0.000000e+00 0.000000e+00
1
Step 238000
Ar -8.631308e-01 0.000000e+00 0.000000e+00
1
Step 239000
Ar -8.189535e-01 0.000000e+00 0.000000e+00
1
Step 240000
Ar -7.209154e-01 0.000000e+00 0.000000e+00
1
Step 241000
Ar -8.525142e-01 0.000000e+00 0.000000e+00
1
Step 242000
Ar -8.346641e-01 0.000000e+00 0.000000e+00
1
Step 243000
Ar -7.354816e-01 0.000000e+00 0.000000e+00
1
Step 244000
Ar -1.005820e+00 0.000000e+00 0.000000e+00
1
Step 245000
Ar -9.387539e-01 0.000000e+00 0.000000e+00
1
Step 246000
Ar -9.527464e-01 0.000000e+00 0.000000e+00
1
Step 247000
Ar -9.761031e-01 0.000000e+00 0.000000e+00
1
Step 248000
Ar -9.638262e-01 0.000000e+00 0.000000e+00
1
Step 249000
Ar -1.108437e+00 0.000000e+00 0.000000e+00
1
Step 250000
Ar -1.044549e+00 0.000000e+00 0.000000e+00
1
Step 251000
Ar -1.073899e+00 0.000000e+00 0.000000e+00
1
Step 252000
Ar -9.985201e-01 0.000000e+00 0.000000e+00
1
Step 253000
Ar -9.131614e-01 0.000000e+00 0.000000e+00
1
Step 254000
Ar -7.974253e-01 0.000000e+00 0.000000e+00
1
Step 255000
Ar -7.869890e-01 0.000000e+00 0.000000e+00
1
Step 256000
Ar -7.645948e-01 0.000000e+00 0.000000e+00
1
Step 257000
Ar -7.770850e-01 0.000000e+00 0.000000e+00
1
Step 258000
Ar -7.499861e-01 0.000000e+00 0.000000e+00
1
Step 259000
Ar -6.663591e-01 0.000000e+00 0.000000e+00
1
Step 260000
Ar -5.070784e-01 0.000000e+00 0.000000e+00
1
Step 261000
Ar -7.022308e-01 0.000000e+00 0.000000e+00
1
Step 262000
Ar -9.878332e-01 0.000000e+00 0.000000e+00
1
Step 263000
Ar -9.474328e-01 0.000000e+00 0.000000e+00
1
Step 264000
Ar -6.843052e-01 0.000000e+00 0.000000e+00
1
Step 265000
Ar -5.926169e-01 0.000000e+00 0.000000e+00
1
Step 266000
Ar -5.830092e-01 0.000000e+00 0.000000e+00
1
Step 267000
Ar -6.711857e-01 0.000000e+00 0.000000e+00
1
Step 268000
Ar -8.937359e-01 0.000000e+00 0.000000e+00
1
Step 269000
Ar -1.178701e+00 0.000000e+00 0.000000e+00
1
Step 270000
Ar -1.130076e+00 0.000000e+00 0.000000e+00
1
Step 271000
Ar -1.080951e+00 0.000000e+00 0.000000e+00
1
Step 272000
Ar -1.163791e+00 0.000000e+00 0.000000e+00
1
Step 273000
Ar -1.304564e+00 0.000000e+00 0.000000e+00
1
Step 274000
Ar -1.222759e+00 0.000000e+00 0.000000e+00
1
Step 275000
Ar -1.064812e+00 0.000000e+00 0.000000e+00
1
Step 276000
Ar -1.050786e+00 0.000000e+00 0.000000e+00
1
Step 277000
Ar -9.025867e-01 0.000000e+00 0.000000e+00
1
Step 278000
Ar -8.063180e-01 0.000000e+00 0.000000e+00
1
Step 279000
Ar -8.460451e-01 0.000000e+00 0.000000e+00
1
Step 280000
Ar -7.027647e-01 0.000000e+00 0.000000e+00
1
Step 281000
Ar -6.541718e-01 0.000000e+00 0.000000e+00
1
Step 282000
Ar -6.358689e-01 0.000000e+00 0.000000e+00
1
Step 283000
Ar -5.985864e-01 0.000000e+00 0.000000e+00
1
Step 284000
Ar -6.168698e-01 0.000000e+00 0.000000e+00
1
Step 285000
Ar -1.068366e+00 0.000000e+00 0.000000e+00
1
Step 286000
Ar -9.719186e-01 0.000000e+00 0.000000e+00
1
Step 287000
Ar -8.762674e-01 0.000000e+00 0.000000e+00
1
Step 288000
Ar -8.851928e-01 0.000000e+00 0.000000e+00
1
Step 289000
Ar -9.227139e-01 0.000000e+00 0.000000e+00
1
Step 290000
Ar -7.794740e-01 0.000000e+00 0.000000e+00
1
Step 291000
Ar -6.914924e-01 0.000000e+00 0.000000e+00
1
Step 292000
Ar -5.618567e-01 0.000000e+00 0.000000e+00
1
Step 293000
Ar -5.493085e-01 0.000000e+00 0.000000e+00
1
Step 294000
Ar 4.423055e-01 0.000000e+00 0.000000e+00
1
Step 295000
Ar 3.793089e-01 0.000000e+00 0.000000e+00
1
Step 296000
Ar 3.700474e-01 0.000000e+00 0.000000e+00
1
Step 297000
Ar 3.998124e-01 0.000000e+00 0.000000e+00
1
Step 298000
Ar 4.165378e-01 0.000000e+00 0.000000e+00
1
Step 299000
Ar 4.803488e-01 0.000000e+00 0.000000e+00
1
Step 300000
Ar 6.219099e-01 0.000000e+00 0.000000e+00
1
Step 301000
Ar 5.941768e-01 0.000000e+00 0.000000e+00
1
Step 302000
Ar 6.568497e-01 0.000000e+00 0.000000e+00
1
Step 303000
Ar 5.363349e-01 0.000000e+00 0.000000e+00
1
Step 304000
Ar 6.362435e-01 0.000000e+00 0.000000e+00
1
Step 305000
Ar 5.971297e-01 0.000000e+00 0.000000e+00
1
Step 306000
Ar 6.224668e-01 0.000000e+00 0.000000e+00
1
Step 307000
Ar 6.007043e-01 0.000000e+00 0.000000e+00
1
Step 308000
Ar 6.118819e-01 0.000000e+00 0.000000e+00
1
Step 309000
Ar 6.725412e-01 0.000000e+00 0.000000e+00
1
Step 310000
Ar 1.055924e+00 0.000000e+00 0.000000e+00
1
Step 311000
Ar 9.617421e-01 0.000000e+00 0.000000e+00
1
Step 312000
Ar 1.043913e+00 0.000000e+00 0.000000e+00
1
Step 313000
Ar 9.339620e-01 0.000000e+00 0.000000e+00
1
Step 314000
Ar 9.734042e-01 0.000000e+00 0.000000e+00
1
Step 315000
Ar 1.091751e+00 0.000000e+00 0.000000e+00
1
Step 316000
Ar 1.033006e+00 0.000000e+00 0.000000e+00
1
Step 317000
Ar 1.048185e+00 0.000000e+00 0.000000e+00
1
Step 318000
Ar 1.070644e+00 0.000000e+00 0.000000e+00
1
Step 319000
Ar 1.291146e+00 0.000000e+00 0.000000e+00
1
Step 320000
Ar 1.170578e+00 0.000000e+00 0.000000e+00
1
Step 321000
Ar 1.132871e+00 0.000000e+00 0.000000e+00
1
Step 322000
Ar 1.179561e+00 0.000000e+00 0.000000e+00
1
Step 323000
Ar 1.228208e+00 0.000000e+00 0.000000e+00
1
Step 324000
Ar 1.219176e+00 0.000000e+00 0.000000e+00
1
Step 325000
Ar 1.198177e+00 0.000000e+00 0.000000e+00
1
Step 326000
Ar 1.240123e+00 0.000000e+00 0.000000e+00
1
Step 327000
Ar 1.252018e+00 0.000000e+00 0.000000e+00
1
Step 328000
Ar 1.269785e+00 0.000000e+00 0.000000e+00
1
Step 329000
Ar 1.261189e+00 0.000000e+00 0.000000e+00
1
Step 330000
Ar 1.189123e+00 0.000000e+00 0.000000e+00
1
Step 331000
Ar 1.116033e+00 0.000000e+00 0.000000e+00
1
Step 332000
Ar 1.214477e+00 0.000000e+00 0.000000e+00
1
Step 333000
Ar 7.767642e-01 0.000000e+00 0.000000e+00
1
Step 334000
Ar 6.891834e-01 0.000000e+00 0.000000e+00
1
Step 335000
Ar 7.380959e-01 0.000000e+00 0.000000e+00
1
Step 336000
Ar 7.290340e-01 0.000000e+00 0.000000e+00
1
Step 337000
Ar 6.330499e-01 0.000000e+00 0.000000e+00
1
Step 338000
Ar 8.398325e-01 0.000000e+00 0.000000e+00
1
Step 339000
Ar 8.848590e-01 0.000000e+00 0.000000e+00
1
Step 340000
Ar 8.920411e-01 0.000000e+00 0.000000e+00
1
Step 341000
Ar 7.824861e-01 0.000000e+00 0.000000e+00
1
Step 342000
Ar 1.022815e+00 0.000000e+00 0.000000e+00
1
Step 343000
Ar 7.976021e-01 0.000000e+00 0.000000e+00
1
Step 344000
Ar 8.666214e-01 0.000000e+00 0.000000e+00
1
Step 345000
Ar 7.892802e-01 0.000000e+00 0.000000e+00
1
Step 346000
Ar 8.235507e-01 0.000000e+00 0.000000e+00
1
Step 347000
Ar 6.672015e-01 0.000000e+00 0.000000e+00
1
Step 348000
Ar 4.932405e-01 0.000000e+00 0.000000e+00
1
Step 349000
Ar 2.952803e-01 0.000000e+00 0.000000e+00
1
Step 350000
Ar 2.310042e-01 0.000000e+00 0.000000e+00
1
Step 351000
Ar 3.135264e-01 0.000000e+00 0.000000e+00
1
Step 352000
Ar 2.653949e-01 0.000000e+00 0.000000e+00
1
Step 353000
Ar 3.563902e-01 0.000000e+00 0.000000e+00
1
Step 354000
Ar 2.863557e-01 0.000000e+00 0.000000e+00
1
Step 355000
Ar 2.467470e-01 0.000000e+00 0.000000e+00
1
Step 356000
Ar -2.873672e-01 0.000000e+00 0.000000e+00
1
Step 357000
Ar -1.248358e-01 0.000000e+00 0.000000e+00
1
Step 358000
Ar -1.742833e-01 0.000000e+00 0.000000e+00
1
Step 359000
Ar -1.437447e-01 0.000000e+00 0.000000e+00
1
Step 360000
Ar -1.391866e-01 0.000000e+00 0.000000e+00
1
Step 361000
Ar -4.406918e-02 0.000000e+00 0.000000e+00
1
Step 362000
Ar 1.531703e-01 0.000000e+00 0.000000e+00
1
Step 363000
Ar 2.027505e-01 0.000000e+00 0.000000e+00
1
Step 364000
Ar 1.798928e-01 0.000000e+00 0.000000e+00
1
Step 365000
Ar 1.691473e-01 0.000000e+00 0.000000e+00
1
Step 366000
Ar -3.191046e-04 0.000000e+00 0.000000e+00
1
Step 367000
Ar 7.475441e-02 0.000000e+00 0.000000e+00
1
Step 368000
Ar 4.585214e-02 0.000000e+00 0.000000e+00
1
Step 369000
Ar 1.020212e-01 0.000000e+00 0.000000e+00
1
Step 370000
Ar 1.366882e-01 0.000000e+00 0.000000e+00
1
Step 371000
Ar 2.108782e-01 0.000000e+00 0.000000e+00
1
Step 372000
Ar 5.061438e-01 0.000000e+00 0.000000e+00
1
Step 373000
Ar 5.770060e-01 0.000000e+00 0.000000e+00
1
Step 374000
Ar 5.468211e-01 0.000000e+00 0.000000e+00
1
Step 375000
Ar 4.082692e-01 0.000000e+00 0.000000e+00
1
Step 376000
Ar 3.446600e-01 0.000000e+00 0.000000e+00
1
Step 377000
Ar 3.306252e-01 0.000000e+00 0.000000e+00
1
Step 378000
Ar 3.167937e-01 0.000000e+00 0.000000e+00
1
Step 379000
Ar 4.991299e-01 0.000000e+00 0.000000e+00
1
Step 380000
Ar 5.225321e-01 0.000000e+00 0.000000e+00
1
Step 381000
Ar 4.577229e-01 0.000000e+00 0.000000e+00
1
Step 382000
Ar 3.879213e-01 0.000000e+00 0.000000e+00
1
Step 383000
Ar 4.533958e-01 0.000000e+00 0.000000e+00
1
Step 384000
Ar 3.319119e-01 0.000000e+00 0.000000e+00
1
Step 385000
Ar 3.535711e-01 0.000000e+00 0.000000e+00
1
Step 386000
Ar 3.437093e-01 0.000000e+00 0.000000e+00
1
Step 387000
Ar 6.268777e-02 0.000000e+00 0.000000e+00
1
Step 388000
Ar -6.016249e-02 0.000000e+00 0.000000e+00
1
Step 389000
Ar 1.206101e-01 0.000000e+00 0.000000e+00
1
Step 390000
Ar 8.163170e-03 0.000000e+00 0.000000e+00
1
Step 391000
Ar 8.934730e-02 0.000000e+00 0.000000e+00
1
Step 392000
Ar 2.768328e-01 0.000000e+00 0.000000e+00
1
Step 393000
Ar 2.586460e-01 0.000000e+00 0.000000e+00
1
Step 394000
Ar 2.873846e-02 0.000000e+00 0.000000e+00
1
Step 395000
Ar 3.932970e-02 0.000000e+00 0.000000e+00
1
Step 396000
Ar -1.077893e-01 0.000000e+00 0.000000e+00
1
Step 397000
Ar -2.421350e-02 0.000000e+00 0.000000e+00
1
Step 398000
Ar -3.565022e-02 0.000000e+00 0.000000e+00
1
Step 399000
Ar -8.756112e-02 0.000000e+00 0.000000e+00
1
Step 400000
Ar -7.450882e-02 0.000000e+00 0.000000e+00
1
Step 401000
Ar -9.643062e-02 0.000000e+00 0.000000e+00
1
Step 402000
Ar -4.594387e-03 0.000000e+00 0.000000e+00
1
Step 403000
Ar -2.434991e-01 0.000000e+00 0.000000e+00
1
Step 404000
Ar -2.108436e-01 0.000000e+00 0.000000e+00
1
Step 405000
Ar -2.733855e-01 0.000000e+00 0.000000e+00
1
Step 406000
Ar -2.522905e-01 0.000000e+00 0.000000e+00
1
Step 407000
Ar -4.316292e-01 0.000000e+00 0.000000e+00
1
Step 408000
Ar -7.562046e-01 0.000000e+00 0.000000e+00
1
Step 409000
Ar -7.179734e-01 0.000000e+00 0.000000e+00
1
Step 410000
Ar -7.313412e-01 0.000000e+00 0.000000e+00
1
Step 411000
Ar -7.419457e-01 0.000000e+00 0.000000e+00
1
Step 412000
Ar -7.658166e-01 0.000000e+00 0.000000e+00
1
Step 413000
Ar -1.017507e+00 0.000000e+00 0.000000e+00
1
Step 414000
Ar -1.010624e+00 0.000000e+00 0.000000e+00
1
Step 415000
Ar -9.926533e-01 0.000000e+00 0.000000e+00
1
Step 416000
Ar -8.502566e-01 0.000000e+00 0.000000e+00
1
Step 417000
Ar -1.097650e+00 0.000000e+00 0.000000e+00
1
Step 418000
Ar -1.120651e+00 0.000000e+00 0.000000e+00
1
Step 419000
Ar -1.142449e+00 0.000000e+00 0.000000e+00
1
Step 420000
Ar -1.197801e+00 0.000000e+00 0.000000e+00
1
Step 421000
Ar -1.265514e+00 0.000000e+00 0.000000e+00
1
Step 422000
Ar -1.234188e+00 0.000000e+00 0.000000e+00
1
Step 423000
Ar -1.239373e+00 0.000000e+00 0.000000e+00
1
Step 424000
Ar -1.317724e+00 0.000000e+00 0.000000e+00
1
Step 425000
Ar -1.332328e+00 0.000000e+00 0.000000e+00
1
Step 426000
Ar -1.337340e+00 0.000000e+00 0.000000e+00
1
Step 427000
Ar -1.350585e+00 0.000000e+00 0.000000e+00
1
Step 428000
Ar -1.376866e+00 0.000000e+00 0.000000e+00
1
Step 429000
Ar -1.415354e+00 0.000000e+00 0.000000e+00
1
Step 430000
Ar -1.365815e+00 0.000000e+00 0.000000e+00
1
Step 431000
Ar -1.382342e+00 0.000000e+00 0.000000e+00
1
Step 432000
Ar -1.292806e+00 0.000000e+00 0.000000e+00
1
Step 433000
Ar -1.253478e+00 0.000000e+00 0.000000e+00
1
Step 434000
Ar -1.249347e+00 0.000000e+00 0.000000e+00
1
Step 435000
Ar -1.114686e+00 0.000000e+00 0.000000e+00
1
Step 436000
Ar -1.171215e+00 0.000000e+00 0.000000e+00
1
Step 437000
Ar -1.179554e+00 0.000000e+00 0.000000e+00
1
Step 438000
Ar -8.240672e-01 0.000000e+00 0.000000e+00
1
Step 439000
Ar -7.456367e-01 0.000000e+00 0.000000e+00
1
Step 440000
Ar -8.264122e-01 0.000000e+00 0.000000e+00
1
Step 441000
Ar -8.363323e-01 0.000000e+00 0.000000e+00
1
Step 442000
Ar -9.810747e-01 0.000000e+00 0.000000e+00
1
Step 443000
Ar -1.036850e+00 0.000000e+00 0.000000e+00
1
Step 444000
Ar -1.062594e+00 0.000000e+00 0.000000e+00
1
Step 445000
Ar -1.019223e+00 0.000000e+00 0.000000e+00
1
Step 446000
Ar -1.027646e+00 0.000000e+00 0.000000e+00
1
Step 447000
Ar -1.054718e+00 0.000000e+00 0.000000e+00
1
Step 448000
Ar -8.689444e-01 0.000000e+00 0.000000e+00
1
Step 449000
Ar -9.133357e-01 0.000000e+00 0.000000e+00
1
Step 450000
Ar -1.001532e+00 0.000000e+00 0.000000e+00
1
Step 451000
Ar -1.011834e+00 0.000000e+00 0.000000e+00
1
Step 452000
Ar -1.277530e+00 0.000000e+00 0.000000e+00
1
Step 453000
Ar -1.285127e+00 0.000000e+00 0.000000e+00
1
Step 454000
Ar -1.217462e+00 0.000000e+00 0.000000e+00
1
Step 455000
Ar -1.298801e+00 0.000000e+00 0.000000e+00
1
Step 456000
Ar -1.208388e+00 0.000000e+00 0.000000e+00
1
Step 457000
Ar -1.193111e+00 0.000000e+00 0.000000e+00
1
Step 458000
Ar -1.266785e+00 0.000000e+00 0.000000e+00
1
Step 459000
Ar -1.229032e+00 0.000000e+00 0.000000e+00
1
Step 460000
Ar -1.136823e+00 0.000000e+00 0.000000e+00
1
Step 461000
Ar -1.090581e+00 0.000000e+00 0.000000e+00
1
Step 462000
Ar -1.098638e+00 0.000000e+00 0.000000e+00
1
Step 463000
Ar -1.149007e+00 0.000000e+00 0.000000e+00
1
Step 464000
Ar -1.125215e+00 0.000000e+00 0.000000e+00
1
Step 465000
Ar -1.132443e+00 0.000000e+00 0.000000e+00
1
Step 466000
Ar -1.157299e+00 0.000000e+00 0.000000e+00
1
Step 467000
Ar -1.154059e+00 0.000000e+00 0.000000e+00
1
Step 468000
Ar -9.381851e-01 0.000000e+00 0.000000e+00
1
Step 469000
Ar -8.824205e-01 0.000000e+00 0.000000e+00
1
Step 470000
Ar -8.878743e-01 0.000000e+00 0.000000e+00
1
Step 471000
Ar -9.500617e-01 0.000000e+00 0.000000e+00
1
Step 472000
Ar -9.640923e-01 0.000000e+00 0.000000e+00
1
Step 473000
Ar -9.873026e-01 0.000000e+00 0.000000e+00
1
Step 474000
Ar -9.605534e-01 0.000000e+00 0.000000e+00
1
Step 475000
Ar -9.220588e-01 0.000000e+00 0.000000e+00
1
Step 476000
Ar -9.337769e-01 0.000000e+00 0.000000e+00
1
Step 477000
Ar -9.689716e-01 0.000000e+00 0.000000e+00
1
Step 478000
Ar -1.107504e+00 0.000000e+00 0.000000e+00
1
Step 479000
Ar -1.034976e+00 0.000000e+00 0.000000e+00
1
Step 480000
Ar -1.081516e+00 0.000000e+00 0.000000e+00
1
Step 481000
Ar -1.089022e+00 0.000000e+00 0.000000e+00
1
Step 482000
Ar -1.041706e+00 0.000000e+00 0.000000e+00
1
Step 483000
Ar -1.094834e+00 0.000000e+00 0.000000e+00
1
Step 484000
Ar -1.171903e+00 0.000000e+00 0.000000e+00
1
Step 485000
Ar -1.202316e+00 0.000000e+00 0.000000e+00
1
Step 486000
Ar -1.355954e+00 0.000000e+00 0.000000e+00
1
Step 487000
Ar -1.251365e+00 0.000000e+00 0.000000e+00
1
Step 488000
Ar -1.245204e+00 0.000000e+00 0.000000e+00
1
Step 489000
Ar -1.238497e+00 0.000000e+00 0.000000e+00
1
Step 490000
Ar -1.183121e+00 0.000000e+00 0.000000e+00
1
Step 491000
Ar -1.215919e+00 0.000000e+00 0.000000e+00
1
Step 492000
Ar -1.163165e+00 0.000000e+00 0.000000e+00
1
Step 493000
Ar -1.138247e+00 0.000000e+00 0.000000e+00
1
Step 494000
Ar -1.147682e+00 0.000000e+00 0.000000e+00
1
Step 495000
Ar -1.109922e+00 0.000000e+00 0.000000e+00
1
Step 496000
Ar -8.112350e-01 0.000000e+00 0.000000e+00
1
Step 497000
Ar -7.889204e-01 0.000000e+00 0.000000e+00
1
Step 498000
Ar -8.114195e-01 0.000000e+00 0.000000e+00
1
Step 499000
Ar -9.007634e-01 0.000000e+00 0.000000e+00
1
Step 500000
Ar -4.746405e-01 0.000000e+00 0.000000e+00
1
Step 501000
Ar -4.570854e-01 0.000000e+00 0.000000e+00
1
Step 502000
Ar -4.417308e-01 0.000000e+00 0.000000e+00
1
Step 503000
Ar -5.402733e-01 0.000000e+00 0.000000e+00
1
Step 504000
Ar -5.274202e-01 0.000000e+00 0.000000e+00
1
Step 505000
Ar -5.105432e-01 0.000000e+00 0.000000e+00
1
Step 506000
Ar -6.385718e-01 0.000000e+00 0.000000e+00
1
Step 507000
Ar -6.488609e-01 0.000000e+00 0.000000e+00
1
Step 508000
Ar -6.757908e-01 0.000000e+00 0.000000e+00
1
Step 509000
Ar -6.853832e-01 0.000000e+00 0.000000e+00
1
Step 510000
Ar -6.639107e-01 0.000000e+00 0.000000e+00
1
Step 511000
Ar -5.669066e-01 0.000000e+00 0.000000e+00
1
Step 512000
Ar -7.705189e-01 0.000000e+00 0.000000e+00
1
Step 513000
Ar -7.944037e-01 0.000000e+00 0.000000e+00
1
Step 514000
Ar -9.076963e-01 0.000000e+00 0.000000e+00
1
Step 515000
Ar -9.431153e-01 0.000000e+00 0.000000e+00
1
Step 516000
Ar -1.123025e+00 0.000000e+00 0.000000e+00
1
Step 517000
Ar -1.103106e+00 0.000000e+00 0.000000e+00
1
Step 518000
Ar -9.807341e-01 0.000000e+00 0.000000e+00
1
Step 519000
Ar -1.023222e+00 0.000000e+00 0.000000e+00
1
Step 520000
Ar -1.059285e+00 0.000000e+00 0.000000e+00
1
Step 521000
Ar -1.049999e+00 0.000000e+00 0.000000e+00
1
Step 522000
Ar -1.000776e+00 0.000000e+00 0.000000e+00
1
Step 523000
Ar -6.265122e-01 0.000000e+00 0.000000e+00
1
Step 524000
Ar -6.062412e-01 0.000000e+00 0.000000e+00
1
Step 525000
Ar -5.327006e-01 0.000000e+00 0.000000e+00
1
Step 526000
Ar -5.201510e-01 0.000000e+00 0.000000e+00
1
Step 527000
Ar -6.116581e-01 0.000000e+00 0.000000e+00
1
Step 528000
Ar -3.627687e-01 0.000000e+00 0.000000e+00
1
Step 529000
Ar -4.871112e-01 0.000000e+00 0.000000e+00
1
Step 530000
Ar -4.316312e-01 0.000000e+00 0.000000e+00
1
Step 531000
Ar -4.644090e-01 0.000000e+00 0.000000e+00
1
Step 532000
Ar -4.927118e-01 0.000000e+00 0.000000e+00
1
Step 533000
Ar -4.982085e-01 0.000000e+00 0.000000e+00
1
Step 534000
Ar -5.721718e-01 0.000000e+00 0.000000e+00
1
Step 535000
Ar -8.406378e-01 0.000000e+00 0.000000e+00
1
Step 536000
Ar -7.106976e-01 0.000000e+00 0.000000e+00
1
Step 537000
Ar -7.095339e-01 0.000000e+00 0.000000e+00
1
Step 538000
Ar -7.248393e-01 0.000000e+00 0.000000e+00
1
Step 539000
Ar -7.541639e-01 0.000000e+00 0.000000e+00
1
Step 540000
Ar -8.597088e-01 0.000000e+00 0.000000e+00
1
Step 541000
Ar -5.256915e-01 0.000000e+00 0.000000e+00
1
Step 542000
Ar -2.235922e-01 0.000000e+00 0.000000e+00
1
Step 543000
Ar -4.185508e-01 0.000000e+00 0.000000e+00
1
Step 544000
Ar -3.801096e-01 0.000000e+00 0.000000e+00
1
Step 545000
Ar -4.083055e-01 0.000000e+00 0.000000e+00
1
Step 546000
Ar -3.059835e-01 0.000000e+00 0.000000e+00
1
Step 547000
Ar -3.387187e-01 0.000000e+00 0.000000e+00
1
Step 548000
Ar -3.266568e-01 0.000000e+00 0.000000e+00
1
Step 549000
Ar -3.913861e-01 0.000000e+00 0.000000e+00
1
Step 550000
Ar -4.033296e-01 0.000000e+00 0.000000e+00
1
Step 551000
Ar -3.149362e-01 0.000000e+00 0.000000e+00
1
Step 552000
Ar -3.716690e-01 0.000000e+00 0.000000e+00
1
Step 553000
Ar -3.427337e-01 0.000000e+00 0.000000e+00
1
Step 554000
Ar -3.980612e-01 0.000000e+00 0.000000e+00
1
Step 555000
Ar -4.767482e-01 0.000000e+00 0.000000e+00
1
Step 556000
Ar -4.512939e-01 0.000000e+00 0.000000e+00
1
Step 557000
Ar -1.828472e-01 0.000000e+00 0.000000e+00
1
Step 558000
Ar -3.513757e-01 0.000000e+00 0.000000e+00
1
Step 559000
Ar -3.503406e-01 0.000000e+00 0.000000e+00
1
Step 560000
Ar -1.008649e+00 0.000000e+00 0.000000e+00
1
Step 561000
Ar -1.194603e+00 0.000000e+00 0.000000e+00
1
Step 562000
Ar -1.205120e+00 0.000000e+00 0.000000e+00
1
Step 563000
Ar -1.142223e+00 0.000000e+00 0.000000e+00
1
Step 564000
Ar -1.323908e+00 0.000000e+00 0.000000e+00
1
Step 565000
Ar -1.274975e+00 0.000000e+00 0.000000e+00
1
Step 566000
Ar -1.309329e+00 0.000000e+00 0.000000e+00
1
Step 567000
Ar -1.366349e+00 0.000000e+00 0.000000e+00
1
Step 568000
Ar -1.492103e+00 0.000000e+00 0.000000e+00
1
Step 569000
Ar -1.452047e+00 0.000000e+00 0.000000e+00
1
Step 570000
Ar -1.178098e+00 0.000000e+00 0.000000e+00
1
Step 571000
Ar -1.164883e+00 0.000000e+00 0.000000e+00
1
Step 572000
Ar -1.071633e+00 0.000000e+00 0.000000e+00
1
Step 573000
Ar -1.044220e+00 0.000000e+00 0.000000e+00
1
Step 574000
Ar -1.085976e+00 0.000000e+00 0.000000e+00
1
Step 575000
Ar -1.052679e+00 0.000000e+00 0.000000e+00
1
Step 576000
Ar -1.118552e+00 0.000000e+00 0.000000e+00
1
Step 577000
Ar -1.078059e+00 0.000000e+00 0.000000e+00
1
Step 578000
Ar -1.087849e+00 0.000000e+00 0.000000e+00
1
Step 579000
Ar -8.769970e-01 0.000000e+00 0.000000e+00
1
Step 580000
Ar -8.707359e-01 0.000000e+00 0.000000e+00
1
Step 581000
Ar -8.219739e-01 0.000000e+00 0.000000e+00
1
Step 582000
Ar -8.952385e-01 0.000000e+00 0.000000e+00
1
Step 583000
Ar -9.144871e-01 0.000000e+00 0.000000e+00
1
Step 584000
Ar -7.370327e-01 0.000000e+00 0.000000e+00
1
Step 585000
Ar -5.566745e-01 0.000000e+00 0.000000e+00
1
Step 586000
Ar -5.460394e-01 0.000000e+00 0.000000e+00
1
Step 587000
Ar -6.390199e-01 0.000000e+00 0.000000e+00
1
Step 588000
Ar -6.511775e-01 0.000000e+00 0.000000e+00
1
Step 589000
Ar -6.795953e-01 0.000000e+00 0.000000e+00
1
Step 590000
Ar -6.843945e-01 0.000000e+00 0.000000e+00
1
Step 591000
Ar -7.994322e-01 0.000000e+00 0.000000e+00
1
Step 592000
Ar -7.758044e-01 0.000000e+00 0.000000e+00
1
Step 593000
Ar -7.620852e-01 0.000000e+00 0.000000e+00
1
Step 594000
Ar -6.973694e-01 0.000000e+00 0.000000e+00
1
Step 595000
Ar -7.119256e-01 0.000000e+00 0.000000e+00
1
Step 596000
Ar -7.826503e-01 0.000000e+00 0.000000e+00
1
Step 597000
Ar -8.532841e-01 0.000000e+00 0.000000e+00
1
Step 598000
Ar -8.345522e-01 0.000000e+00 0.000000e+00
1
Step 599000
Ar -9.234764e-01 0.000000e+00 0.000000e+00
1
Step 600000
Ar -1.030436e+00 0.000000e+00 0.000000e+00
1
Step 601000
Ar -1.019216e+00 0.000000e+00 0.000000e+00
1
Step 602000
Ar -8.650336e-01 0.000000e+00 0.000000e+00
1
Step 603000
Ar -8.010540e-01 0.000000e+00 0.000000e+00
1
Step 604000
Ar -8.982502e-01 0.000000e+00 0.000000e+00
1
Step 605000
Ar -1.343195e+00 0.000000e+00 0.000000e+00
1
Step 606000
Ar -1.260286e+00 0.000000e+00 0.000000e+00
1
Step 607000
Ar -1.396011e+00 0.000000e+00 0.000000e+00
1
Step 608000
Ar -1.437353e+00 0.000000e+00 0.000000e+00
1
Step 609000
Ar -1.460474e+00 0.000000e+00 0.000000e+00
1
Step 610000
Ar -1.285423e+00 0.000000e+00 0.000000e+00
1
Step 611000
Ar -1.399539e+00 0.000000e+00 0.000000e+00
1
Step 612000
Ar -1.426342e+00 0.000000e+00 0.000000e+00
1
Step 613000
Ar -1.289848e+00 0.000000e+00 0.000000e+00
1
Step 614000
Ar -1.384835e+00 0.000000e+00 0.000000e+00
1
Step 615000
Ar -1.407548e+00 0.000000e+00 0.000000e+00
1
Step 616000
Ar -1.444347e+00 0.000000e+00 0.000000e+00
1
Step 617000
Ar -1.512261e+00 0.000000e+00 0.000000e+00
1
Step 618000
Ar -1.314904e+00 0.000000e+00 0.000000e+00
1
Step 619000
Ar -1.324357e+00 0.000000e+00 0.000000e+00
1
Step 620000
Ar -1.506358e+00 0.000000e+00 0.000000e+00
1
Step 621000
Ar -1.227701e+00 0.000000e+00 0.000000e+00
1
Step 622000
Ar -1.347694e+00 0.000000e+00 0.000000e+00
1
Step 623000
Ar -1.304637e+00 0.000000e+00 0.000000e+00
1
Step 624000
Ar -1.296078e+00 0.000000e+00 0.000000e+00
1
Step 625000
Ar -1.428914e+00 0.000000e+00 0.000000e+00
1
Step 626000
Ar -1.477656e+00 0.000000e+00 0.000000e+00
1
Step 627000
Ar -1.483190e+00 0.000000e+00 0.000000e+00
1
Step 628000
Ar -1.126312e+00 0.000000e+00 0.000000e+00
1
Step 629000
Ar -1.534242e+00 0.000000e+00 0.000000e+00
1
Step 630000
Ar -1.562578e+00 0.000000e+00 0.000000e+00
1
Step 631000
Ar -1.523783e+00 0.000000e+00 0.000000e+00
1
Step 632000
Ar -1.548756e+00 0.000000e+00 0.000000e+00
1
Step 633000
Ar -1.467894e+00 0.000000e+00 0.000000e+00
1
Step 634000
Ar -1.457838e+00 0.000000e+00 0.000000e+00
1
Step 635000
Ar -1.372174e+00 0.000000e+00 0.000000e+00
1
Step 636000
Ar -1.415730e+00 0.000000e+00 0.000000e+00
1
Step 637000
Ar -1.273405e+00 0.000000e+00 0.000000e+00
1
Step 638000
Ar -1.225919e+00 0.000000e+00 0.000000e+00
1
Step 639000
Ar -1.491421e+00 0.000000e+00 0.000000e+00
1
Step 640000
Ar -1.332046e+00 0.000000e+00 0.000000e+00
1
Step 641000
Ar -1.354836e+00 0.000000e+00 0.000000e+00
1
Step 642000
Ar -1.390456e+00 0.000000e+00 0.000000e+00
1
Step 643000
Ar -1.423192e+00 0.000000e+00 0.000000e+00
1
Step 644000
Ar -1.263558e+00 0.000000e+00 0.000000e+00
1
Step 645000
Ar -1.345663e+00 0.000000e+00 0.000000e+00
1
Step 646000
Ar -1.193816e+00 0.000000e+00 0.000000e+00
1
Step 647000
Ar -1.313436e+00 0.000000e+00 0.000000e+00
1
Step 648000
Ar -1.171126e+00 0.000000e+00 0.000000e+00
1
Step 649000