1
Step 120000
Ar -9.046941e-03 0.000000e+00 0.000000e+00
1
Step 121000
Ar -1.891307e-02 0.000000e+00 0.000000e+00
1
Step 122000
Ar -2.897278e-02 0.000000e+00 0.000000e+00
1
Step 123000
Ar 7.883542e-03 0.000000e+00 0.000000e+00
1
Step 124000
Ar 3.435571e-02 0.000000e+00 0.000000e+00
1
Step 125000
Ar 5.035873e-02 0.000000e+00 0.000000e+00
1
Step 126000
Ar 4.266812e-02 0.000000e+00 0.000000e+00
1
Step 127000
Ar -4.270734e-02 0.000000e+00 0.000000e+00
1
Step 128000
Ar -2.412778e-02 0.000000e+00 0.000000e+00
1
Step 129000
Ar 8.755535e-02 0.000000e+00 0.000000e+00
1
Step 130000
Ar 2.341975e-02 0.000000e+00 0.000000e+00
1
Step 131000
Ar -5.171283e-03 0.000000e+00 0.000000e+00
1
Step 132000
Ar -4.508119e-02 0.000000e+00 0.000000e+00
1
Step 133000
Ar 4.685572e-02 0.000000e+00 0.000000e+00
1
Step 134000
Ar -4.698101e-02 0.000000e+00 0.000000e+00
1
Step 135000
Ar 4.684408e-02 0.000000e+00 0.000000e+00
1
Step 136000
Ar 4.053541e-02 0.000000e+00 0.000000e+00
1
Step 137000
Ar 3.865034e-02 0.000000e+00 0.000000e+00
1
Step 138000
Ar -5.867308e-03 0.000000e+00 0.000000e+00
1
Step 139000
Ar 3.246337e-02 0.000000e+00 0.000000e+00
1
Step 140000
Ar -5.992260e-02 0.000000e+00 0.000000e+00
1
Step 141000
Ar 2.159395e-02 0.000000e+00 0.000000e+00
1
Step 142000
Ar -1.921940e-02 0.000000e+00 0.000000e+00
1
Step 143000
Ar 6.881611e-02 0.000000e+00 0.000000e+00
1
Step 144000
Ar -1.159830e-03 0.000000e+00 0.000000e+00
1
Step 145000
Ar 1.200601e-02 0.000000e+00 0.000000e+00
1
Step 146000
Ar -4.424586e-02 0.000000e+00 0.000000e+00
1
Step 147000
Ar -4.275494e-02 0.000000e+00 0.000000e+00
1
Step 148000
Ar 1.385590e-02 0.000000e+00 0.000000e+00
1
Step 149000
Ar -2.235756e-02 0.000000e+00 0.000000e+00
1
Step 150000
Ar 1.261964e-02 0.000000e+00 0.000000e+00
1
Step 151000
Ar -3.965491e-03 0.000000e+00 0.000000e+00
1
Step 152000
Ar 5.384358e-02 0.000000e+00 0.000000e+00
1
Step 153000
Ar -1.959814e-02 0.000000e+00 0.000000e+00
1
Step 154000
Ar -2.167134e-02 0.000000e+00 0.000000e+00
1
Step 155000
Ar -5.936878e-02 0.000000e+00 0.000000e+00
1
Step 156000
Ar 7.734227e-02 0.000000e+00 0.000000e+00
1
Step 157000
Ar 5.744680e-03 0.000000e+00 0.000000e+00
1
Step 158000
Ar -4.708507e-02 0.000000e+00 0.000000e+00
1
Step 159000
Ar 4.173575e-02 0.000000e+00 0.000000e+00
1
Step 160000
Ar -1.876024e-03 0.000000e+00 0.000000e+00
1
Step 161000
Ar 4.375652e-03 0.000000e+00 0.000000e+00
1
Step 162000
Ar -1.127399e-02 0.000000e+00 0.000000e+00
1
Step 163000
Ar 7.124810e-02 0.000000e+00 0.000000e+00
1
Step 164000
Ar 2.098935e-02 0.000000e+00 0.000000e+00
1
Step 165000
Ar 1.799409e-02 0.000000e+00 0.000000e+00
1
Step 166000
Ar -2.583657e-02 0.000000e+00 0.000000e+00
1
Step 167000
Ar 4.853436e-02 0.000000e+00 0.000000e+00
1
Step 168000
Ar -4.827125e-02 0.000000e+00 0.000000e+00
1
Step 169000
Ar 2.196147e-02 0.000000e+00 0.000000e+00
1
Step 170000
Ar -3.922733e-02 0.000000e+00 0.000000e+00
1
Step 171000
Ar 2.044024e-03 0.000000e+00 0.000000e+00
1
Step 172000
Ar -2.681344e-02 0.000000e+00 0.000000e+00
1
Step 173000
Ar -6.933538e-03 0.000000e+00 0.000000e+00
1
Step 174000
Ar 1.767486e-02 0.000000e+00 0.000000e+00
1
Step 175000
Ar -2.585095e-02 0.000000e+00 0.000000e+00
1
Step 176000
Ar 3.582206e-02 0.000000e+00 0.000000e+00
1
Step 177000
Ar -1.144450e-02 0.000000e+00 0.000000e+00
1
Step 178000
Ar 4.059386e-02 0.000000e+00 0.000000e+00
1
Step 179000
Ar -3.537296e-02 0.000000e+00 0.000000e+00
1
Step 180000
Ar 1.266450e-02 0.000000e+00 0.000000e+00
1
Step 181000
Ar 1.323399e-02 0.000000e+00 0.000000e+00
1
Step 182000
Ar -3.536229e-02 0.000000e+00 0.000000e+00
1
Step 183000
Ar -1.933586e-02 0.000000e+00 0.000000e+00
1
Step 184000
Ar 5.087718e-02 0.000000e+00 0.000000e+00
1
Step 185000
Ar 6.726937e-03 0.000000e+00 0.000000e+00
1
Step 186000
Ar 8.839448e-02 0.000000e+00 0.000000e+00
1
Step 187000
Ar 4.445846e-03 0.000000e+00 0.000000e+00
1
Step 188000
Ar -8.571799e-03 0.000000e+00 0.000000e+00
1
Step 189000
Ar 8.381708e-03 0.000000e+00 0.000000e+00
1
Step 190000
Ar 6.393110e-03 0.000000e+00 0.000000e+00
1
Step 191000
Ar -1.211882e-02 0.000000e+00 0.000000e+00
1
Step 192000
Ar 2.571655e-02 0.000000e+00 0.000000e+00
1
Step 193000
Ar -6.260914e-03 0.000000e+00 0.000000e+00
1
Step 194000
Ar 7.505334e-02 0.000000e+00 0.000000e+00
1
Step 195000
Ar 6.424112e-02 0.000000e+00 0.000000e+00
1
Step 196000
Ar 9.674107e-03 0.000000e+00 0.000000e+00
1
Step 197000
Ar -1.298154e-02 0.000000e+00 0.000000e+00
1
Step 198000
Ar 6.926221e-03 0.000000e+00 0.000000e+00
1
Step 199000
Ar -2.119655e-02 0.000000e+00 0.000000e+00
1
Step 200000
Ar -4.190778e-02 0.000000e+00 0.000000e+00
1
Step 201000
Ar 5.207184e-02 0.000000e+00 0.000000e+00
1
Step 202000
Ar -7.277728e-03 0.000000e+00 0.000000e+00
1
Step 203000
Ar 3.545120e-02 0.000000e+00 0.000000e+00
1
Step 204000
Ar 1.899506e-03 0.000000e+00 0.000000e+00
1
Step 205000
Ar 2.312371e-02 0.000000e+00 0.000000e+00
1
Step 206000
Ar -1.821700e-02 0.000000e+00 0.000000e+00
1
Step 207000
Ar 5.438149e-02 0.000000e+00 0.000000e+00
1
Step 208000
Ar 2.454086e-02 0.000000e+00 0.000000e+00
1
Step 209000
Ar -1.337444e-02 0.000000e+00 0.000000e+00
1
Step 210000
Ar -3.222861e-02 0.000000e+00 0.000000e+00
1
Step 211000
Ar 7.521249e-02 0.000000e+00 0.000000e+00
1
Step 212000
Ar 4.822644e-02 0.000000e+00 0.000000e+00
1
Step 213000
Ar 7.362042e-03 0.000000e+00 0.000000e+00
1
Step 214000
Ar 4.204776e-02 0.000000e+00 0.000000e+00
1
Step 215000
Ar 4.047628e-02 0.000000e+00 0.000000e+00
1
Step 216000
Ar 2.556748e-02 0.000000e+00 0.000000e+00
1
Step 217000
Ar -4.307314e-02 0.000000e+00 0.000000e+00
1
Step 218000
Ar 2.050082e-02 0.000000e+00 0.000000e+00
1
Step 219000
Ar -3.237187e-02 0.000000e+00 0.000000e+00
1
Step 220000
Ar -3.048933e-02 0.000000e+00 0.000000e+00
1
Step 221000
Ar 5.187483e-02 0.000000e+00 0.000000e+00
1
Step 222000
Ar 8.890624e-02 0.000000e+00 0.000000e+00
1
Step 223000
Ar -4.790680e-02 0.000000e+00 0.000000e+00
1
Step 224000
Ar -4.693950e-02 0.000000e+00 0.000000e+00
1
Step 225000
Ar 3.292657e-02 0.000000e+00 0.000000e+00
1
Step 226000
Ar 1.660080e-02 0.000000e+00 0.000000e+00
1
Step 227000
Ar 8.410184e-03 0.000000e+00 0.000000e+00
1
Step 228000
Ar 3.664615e-03 0.000000e+00 0.000000e+00
1
Step 229000
Ar 1.695350e-02 0.000000e+00 0.000000e+00
1
Step 230000
Ar -4.203912e-02 0.000000e+00 0.000000e+00
1
Step 231000
Ar 3.204077e-02 0.000000e+00 0.000000e+00
1
Step 232000
Ar 1.991730e-02 0.000000e+00 0.000000e+00
1
Step 233000
Ar -1.556877e-02 0.000000e+00 0.000000e+00
1
Step 234000
Ar -1.641717e-02 0.000000e+00 0.000000e+00
1
Step 235000
Ar -3.169077e-02 0.000000e+00 0.000000e+00
1
Step 236000
Ar 4.660752e-02 0.000000e+00 0.000000e+00
1
Step 237000
Ar -7.256009e-02 0.000000e+00 0.000000e+00
1
Step 238000
Ar 1.107593e-02 0.000000e+00 0.000000e+00
1
Step 239000
Ar 1.350482e-02 0.000000e+00 0.000000e+00
1
Step 240000
Ar -2.738228e-02 0.000000e+00 0.000000e+00
1
Step 241000
Ar 1.469404e-02 0.000000e+00 0.000000e+00
1
Step 242000
Ar 2.730759e-03 0.000000e+00 0.000000e+00
1
Step 243000
Ar 1.783914e-02 0.000000e+00 0.000000e+00
1
Step 244000
Ar 3.038069e-02 0.000000e+00 0.000000e+00
1
Step 245000
Ar 7.980137e-03 0.000000e+00 0.000000e+00
1
Step 246000
Ar 4.262237e-02 0.000000e+00 0.000000e+00
1
Step 247000
Ar 2.361486e-02 0.000000e+00 0.000000e+00
1
Step 248000
Ar 4.224644e-02 0.000000e+00 0.000000e+00
1
Step 249000
Ar 1.610165e-02 0.000000e+00 0.000000e+00
1
Step 250000
Ar -2.161390e-02 0.000000e+00 0.000000e+00
1
Step 251000
Ar 5.529800e-02 0.000000e+00 0.000000e+00
1
Step 252000
Ar 2.837246e-03 0.000000e+00 0.000000e+00
1
Step 253000
Ar 2.738789e-02 0.000000e+00 0.000000e+00
1
Step 254000
Ar 4.115642e-02 0.000000e+00 0.000000e+00
1
Step 255000
Ar -1.132136e-02 0.000000e+00 0.000000e+00
1
Step 256000
Ar -1.589393e-02 0.000000e+00 0.000000e+00
1
Step 257000
Ar 2.023114e-02 0.000000e+00 0.000000e+00
1
Step 258000
Ar -2.735539e-03 0.000000e+00 0.000000e+00
1
Step 259000
Ar -2.567557e-04 0.000000e+00 0.000000e+00
1
Step 260000
Ar 1.541484e-02 0.000000e+00 0.000000e+00
1
Step 261000
Ar -5.940397e-03 0.000000e+00 0.000000e+00
1
Step 262000
Ar -1.321549e-02 0.000000e+00 0.000000e+00
1
Step 263000
Ar -8.892784e-03 0.000000e+00 0.000000e+00
1
Step 264000
Ar -5.215074e-03 0.000000e+00 0.000000e+00
1
Step 265000
Ar -3.184271e-04 0.000000e+00 0.000000e+00
1
Step 266000
Ar -5.484075e-02 0.000000e+00 0.000000e+00
1
Step 267000
Ar 2.928771e-03 0.000000e+00 0.000000e+00
1
Step 268000
Ar 5.620277e-02 0.000000e+00 0.000000e+00
1
Step 269000
Ar 3.853100e-02 0.000000e+00 0.000000e+00
1
Step 270000
Ar -1.993873e-03 0.000000e+00 0.000000e+00
1
Step 271000
Ar 1.014640e-02 0.000000e+00 0.000000e+00
1
Step 272000
Ar 2.353039e-02 0.000000e+00 0.000000e+00
1
Step 273000
Ar 4.155944e-02 0.000000e+00 0.000000e+00
1
Step 274000
Ar 1.368603e-02 0.000000e+00 0.000000e+00
1
Step 275000
Ar 8.922547e-03 0.000000e+00 0.000000e+00
1
Step 276000
Ar 1.884898e-02 0.000000e+00 0.000000e+00
1
Step 277000
Ar 7.972087e-02 0.000000e+00 0.000000e+00
1
Step 278000
Ar -1.288081e-02 0.000000e+00 0.000000e+00
1
Step 279000
Ar -5.595379e-02 0.000000e+00 0.000000e+00
1
Step 280000
Ar -1.304078e-02 0.000000e+00 0.000000e+00
1
Step 281000
Ar 2.859088e-02 0.000000e+00 0.000000e+00
1
Step 282000
Ar -5.157045e-03 0.000000e+00 0.000000e+00
1
Step 283000
Ar -1.434764e-04 0.000000e+00 0.000000e+00
1
Step 284000
Ar 1.381104e-02 0.000000e+00 0.000000e+00
1
Step 285000
Ar -1.233737e-02 0.000000e+00 0.000000e+00
1
Step 286000
Ar 3.720376e-03 0.000000e+00 0.000000e+00
1
Step 287000
Ar 1.087204e-02 0.000000e+00 0.000000e+00
1
Step 288000
Ar -1.300030e-02 0.000000e+00 0.000000e+00
1
Step 289000
Ar -4.877219e-02 0.000000e+00 0.000000e+00
1
Step 290000
Ar -1.117651e-03 0.000000e+00 0.000000e+00
1
Step 291000
Ar 2.984428e-02 0.000000e+00 0.000000e+00
1
Step 292000
Ar -3.034479e-02 0.000000e+00 0.000000e+00
1
Step 293000
Ar -2.823588e-02 0.000000e+00 0.000000e+00
1
Step 294000
Ar 1.550466e-02 0.000000e+00 0.000000e+00
1
Step 295000
Ar -9.967330e-03 0.000000e+00 0.000000e+00
1
Step 296000
Ar 1.173723e-02 0.000000e+00 0.000000e+00
1
Step 297000
Ar 2.219537e-02 0.000000e+00 0.000000e+00
1
Step 298000
Ar 2.793148e-02 0.000000e+00 0.000000e+00
1
Step 299000
Ar -3.266116e-02 0.000000e+00 0.000000e+00
1
Step 300000
Ar -2.845715e-02 0.000000e+00 0.000000e+00
1
Step 301000
Ar -4.823178e-02 0.000000e+00 0.000000e+00
1
Step 302000
Ar 6.163385e-02 0.000000e+00 0.000000e+00
1
Step 303000
Ar 1.185936e-02 0.000000e+00 0.000000e+00
1
Step 304000
Ar 3.694948e-02 0.000000e+00 0.000000e+00
1
Step 305000
Ar 1.688938e-03 0.000000e+00 0.000000e+00
1
Step 306000
Ar -7.655254e-03 0.000000e+00 0.000000e+00
1
Step 307000
Ar -3.688255e-02 0.000000e+00 0.000000e+00
1
Step 308000
Ar -3.624792e-02 0.000000e+00 0.000000e+00
1
Step 309000
Ar -4.746793e-03 0.000000e+00 0.000000e+00
1
Step 310000
Ar -3.068270e-02 0.000000e+00 0.000000e+00
1
Step 311000
Ar -8.591728e-03 0.000000e+00 0.000000e+00
1
Step 312000
Ar -5.320703e-02 0.000000e+00 0.000000e+00
1
Step 313000
Ar -1.333834e-02 0.000000e+00 0.000000e+00
1
Step 314000
Ar -1.921946e-02 0.000000e+00 0.000000e+00
1
Step 315000
Ar -5.737765e-02 0.000000e+00 0.000000e+00
1
Step 316000
Ar -9.361141e-03 0.000000e+00 0.000000e+00
1
Step 317000
Ar 2.724699e-04 0.000000e+00 0.000000e+00
1
Step 318000
Ar -9.030098e-03 0.000000e+00 0.000000e+00
1
Step 319000
Ar -3.001723e-03 0.000000e+00 0.000000e+00
1
Step 320000
Ar 3.625370e-02 0.000000e+00 0.000000e+00
1
Step 321000
Ar 2.419038e-02 0.000000e+00 0.000000e+00
1
Step 322000
Ar -5.433365e-03 0.000000e+00 0.000000e+00
1
Step 323000
Ar 6.956575e-03 0.000000e+00 0.000000e+00
1
Step 324000
Ar -1.328467e-02 0.000000e+00 0.000000e+00
1
Step 325000
Ar -1.653145e-02 0.000000e+00 0.000000e+00
1
Step 326000
Ar -3.713065e-02 0.000000e+00 0.000000e+00
1
Step 327000
Ar 7.580161e-02 0.000000e+00 0.000000e+00
1
Step 328000
Ar -4.926259e-02 0.000000e+00 0.000000e+00
1
Step 329000
Ar 4.662642e-02 0.000000e+00 0.000000e+00
1
Step 330000
Ar -4.656133e-03 0.000000e+00 0.000000e+00
1
Step 331000
Ar -7.509807e-03 0.000000e+00 0.000000e+00
1
Step 332000
Ar -2.138963e-02 0.000000e+00 0.000000e+00
1
Step 333000
Ar 2.177544e-03 0.000000e+00 0.000000e+00
1
Step 334000
Ar 2.614404e-03 0.000000e+00 0.000000e+00
1
Step 335000
Ar -5.903069e-02 0.000000e+00 0.000000e+00
1
Step 336000
Ar -2.993478e-02 0.000000e+00 0.000000e+00
1
Step 337000
Ar -4.497017e-02 0.000000e+00 0.000000e+00
1
Step 338000
Ar 2.527051e-02 0.000000e+00 0.000000e+00
1
Step 339000
Ar -2.135673e-02 0.000000e+00 0.000000e+00
1
Step 340000
Ar 1.785156e-02 0.000000e+00 0.000000e+00
1
Step 341000
Ar 3.265211e-02 0.000000e+00 0.000000e+00
1
Step 342000
Ar -1.611788e-02 0.000000e+00 0.000000e+00
1
Step 343000
Ar 9.251792e-03 0.000000e+00 0.000000e+00
1
Step 344000
Ar -6.867836e-03 0.000000e+00 0.000000e+00
1
Step 345000
Ar -7.387436e-03 0.000000e+00 0.000000e+00
1
Step 346000
Ar -2.359033e-02 0.000000e+00 0.000000e+00
1
Step 347000
Ar -3.245408e-02 0.000000e+00 0.000000e+00
1
Step 348000
Ar -1.496437e-02 0.000000e+00 0.000000e+00
1
Step 349000
Ar 6.390848e-03 0.000000e+00 0.000000e+00
1
Step 350000
Ar -4.235062e-02 0.000000e+00 0.000000e+00
1
Step 351000
Ar 1.693121e-03 0.000000e+00 0.000000e+00
1
Step 352000
Ar -4.425102e-03 0.000000e+00 0.000000e+00
1
Step 353000
Ar -5.073537e-02 0.000000e+00 0.000000e+00
1
Step 354000
Ar 6.919011e-03 0.000000e+00 0.000000e+00
1
Step 355000
Ar -1.183634e-03 0.000000e+00 0.000000e+00
1
Step 356000
Ar 3.951982e-03 0.000000e+00 0.000000e+00
1
Step 357000
Ar 1.049495e-02 0.000000e+00 0.000000e+00
1
Step 358000
Ar -3.306759e-03 0.000000e+00 0.000000e+00
1
Step 359000
Ar -5.064322e-02 0.000000e+00 0.000000e+00
1
Step 360000
Ar -1.913692e-02 0.000000e+00 0.000000e+00
1
Step 361000
Ar 2.747979e-02 0.000000e+00 0.000000e+00
1
Step 362000
Ar -3.821847e-02 0.000000e+00 0.000000e+00
1
Step 363000
Ar -3.458459e-02 0.000000e+00 0.000000e+00
1
Step 364000
Ar 4.763348e-02 0.000000e+00 0.000000e+00
1
Step 365000
Ar 2.853193e-02 0.000000e+00 0.000000e+00
1
Step 366000
Ar -3.672653e-02 0.000000e+00 0.000000e+00
1
Step 367000
Ar -1.574210e-03 0.000000e+00 0.000000e+00
1
Step 368000
Ar -1.735054e-02 0.000000e+00 0.000000e+00
1
Step 369000
Ar 3.570806e-02 0.000000e+00 0.000000e+00
1
Step 370000
Ar 3.124427e-02 0.000000e+00 0.000000e+00
1
Step 371000
Ar -5.523766e-03 0.000000e+00 0.000000e+00
1
Step 372000
Ar 4.113321e-02 0.000000e+00 0.000000e+00
1
Step 373000
Ar 3.059959e-02 0.000000e+00 0.000000e+00
1
Step 374000
Ar 7.072576e-03 0.000000e+00 0.000000e+00
1
Step 375000
Ar -4.081215e-02 0.000000e+00 0.000000e+00
1
Step 376000
Ar -6.060254e-03 0.000000e+00 0.000000e+00
1
Step 377000
Ar -4.387665e-02 0.000000e+00 0.000000e+00
1
Step 378000
Ar -5.245173e-02 0.000000e+00 0.000000e+00
1
Step 379000
Ar 6.185008e-02 0.000000e+00 0.000000e+00
1
Step 380000
Ar -2.858093e-02 0.000000e+00 0.000000e+00
1
Step 381000
Ar 2.679193e-02 0.000000e+00 0.000000e+00
1
Step 382000
Ar -5.762045e-03 0.000000e+00 0.000000e+00
1
Step 383000
Ar -1.992259e-03 0.000000e+00 0.000000e+00
1
Step 384000
Ar 3.774333e-03 0.000000e+00 0.000000e+00
1
Step 385000
Ar -1.134583e-02 0.000000e+00 0.000000e+00
1
Step 386000
Ar 4.453920e-02 0.000000e+00 0.000000e+00
1
Step 387000
Ar -2.985360e-02 0.000000e+00 0.000000e+00
1
Step 388000
Ar 2.859818e-02 0.000000e+00 0.000000e+00
1
Step 389000
Ar -8.518755e-03 0.000000e+00 0.000000e+00
1
Step 390000
Ar -1.302511e-02 0.000000e+00 0.000000e+00
1
Step 391000
Ar -4.359923e-02 0.000000e+00 0.000000e+00
1
Step 392000
Ar -3.732763e-02 0.000000e+00 0.000000e+00
1
Step 393000
Ar 1.238135e-02 0.000000e+00 0.000000e+00
1
Step 394000
Ar 6.175341e-03 0.000000e+00 0.000000e+00
1
Step 395000
Ar 4.126954e-02 0.000000e+00 0.000000e+00
1
Step 396000
Ar -1.823821e-03 0.000000e+00 0.000000e+00
1
Step 397000
Ar 6.295778e-02 0.000000e+00 0.000000e+00
1
Step 398000
Ar -6.723030e-03 0.000000e+00 0.000000e+00
1
Step 399000
Ar 2.940287e-02 0.000000e+00 0.000000e+00
1
Step 400000
Ar 7.814978e-02 0.000000e+00 0.000000e+00
1
Step 401000
Ar -1.410913e-02 0.000000e+00 0.000000e+00
1
Step 402000
Ar -3.940460e-02 0.000000e+00 0.000000e+00
1
Step 403000
Ar -1.018205e-02 0.000000e+00 0.000000e+00
1
Step 404000
Ar -4.556279e-02 0.000000e+00 0.000000e+00
1
Step 405000
Ar 1.092013e-01 0.000000e+00 0.000000e+00
1
Step 406000
Ar -2.639948e-02 0.000000e+00 0.000000e+00
1
Step 407000
Ar 1.971763e-02 0.000000e+00 0.000000e+00
1
Step 408000
Ar 7.604933e-02 0.000000e+00 0.000000e+00
1
Step 409000
Ar -9.284495e-03 0.000000e+00 0.000000e+00
1
Step 410000
Ar -4.067004e-03 0.000000e+00 0.000000e+00
1
Step 411000
Ar -1.618115e-02 0.000000e+00 0.000000e+00
1
Step 412000
Ar -4.751099e-03 0.000000e+00 0.000000e+00
1
Step 413000
Ar 1.850807e-02 0.000000e+00 0.000000e+00
1
Step 414000
Ar 8.248444e-03 0.000000e+00 0.000000e+00
1
Step 415000
Ar -1.169267e-03 0.000000e+00 0.000000e+00
1
Step 416000
Ar 1.885636e-02 0.000000e+00 0.000000e+00
1
Step 417000
Ar -2.172330e-02 0.000000e+00 0.000000e+00
1
Step 418000
Ar 5.696808e-03 0.000000e+00 0.000000e+00
1
Step 419000
Ar -3.546156e-04 0.000000e+00 0.000000e+00
1
Step 420000
Ar -1.607497e-02 0.000000e+00 0.000000e+00
1
Step 421000
Ar 2.198118e-02 0.000000e+00 0.000000e+00
1
Step 422000
Ar -1.231633e-02 0.000000e+00 0.000000e+00
1
Step 423000
Ar -3.466435e-02 0.000000e+00 0.000000e+00
1
Step 424000
Ar -1.671104e-03 0.000000e+00 0.000000e+00
1
Step 425000
Ar 1.088030e-02 0.000000e+00 0.000000e+00
1
Step 426000
Ar -2.059292e-02 0.000000e+00 0.000000e+00
1
Step 427000
Ar 4.077046e-03 0.000000e+00 0.000000e+00
1
Step 428000
Ar -4.553394e-03 0.000000e+00 0.000000e+00
1
Step 429000
Ar 1.056573e-02 0.000000e+00 0.000000e+00
1
Step 430000
Ar 1.085563e-02 0.000000e+00 0.000000e+00
1
Step 431000
Ar 6.302611e-03 0.000000e+00 0.000000e+00
1
Step 432000
Ar 3.146992e-02 0.000000e+00 0.000000e+00
1
Step 433000
Ar 2.147084e-02 0.000000e+00 0.000000e+00
1
Step 434000
Ar 2.198128e-02 0.000000e+00 0.000000e+00
1
Step 435000
Ar 3.956243e-02 0.000000e+00 0.000000e+00
1
Step 436000
Ar 1.996157e-02 0.000000e+00 0.000000e+00
1
Step 437000
Ar 7.353301e-02 0.000000e+00 0.000000e+00
1
Step 438000
Ar -1.419565e-02 0.000000e+00 0.000000e+00
1
Step 439000
Ar 6.078247e-03 0.000000e+00 0.000000e+00
1
Step 440000
Ar -4.291498e-02 0.000000e+00 0.000000e+00
1
Step 441000
Ar 6.628660e-02 0.000000e+00 0.000000e+00
1
Step 442000
Ar -2.011907e-02 0.000000e+00 0.000000e+00
1
Step 443000
Ar 1.323262e-04 0.000000e+00 0.000000e+00
1
Step 444000
Ar -1.257275e-02 0.000000e+00 0.000000e+00
1
Step 445000
Ar 1.285927e-02 0.000000e+00 0.000000e+00
1
Step 446000
Ar 1.133580e-02 0.000000e+00 0.000000e+00
1
Step 447000
Ar -4.814173e-02 0.000000e+00 0.000000e+00
1
Step 448000
Ar -3.297468e-02 0.000000e+00 0.000000e+00
1
Step 449000
Ar -2.010362e-03 0.000000e+00 0.000000e+00
1
Step 450000
Ar -1.716034e-03 0.000000e+00 0.000000e+00
1
Step 451000
Ar 6.042894e-04 0.000000e+00 0.000000e+00
1
Step 452000
Ar 6.708810e-02 0.000000e+00 0.000000e+00
1
Step 453000
Ar -2.633751e-02 0.000000e+00 0.000000e+00
1
Step 454000
Ar -1.188036e-02 0.000000e+00 0.000000e+00
1
Step 455000
Ar 1.223832e-02 0.000000e+00 0.000000e+00
1
Step 456000
Ar 1.829437e-02 0.000000e+00 0.000000e+00
1
Step 457000
Ar -8.106379e-03 0.000000e+00 0.000000e+00
1
Step 458000
Ar 2.440256e-02 0.000000e+00 0.000000e+00
1
Step 459000
Ar 2.832364e-02 0.000000e+00 0.000000e+00
1
Step 460000
Ar -3.900379e-02 0.000000e+00 0.000000e+00
1
Step 461000
Ar 3.620731e-03 0.000000e+00 0.000000e+00
1
Step 462000
Ar 1.586661e-02 0.000000e+00 0.000000e+00
1
Step 463000
Ar 1.484210e-02 0.000000e+00 0.000000e+00
1
Step 464000
Ar -2.999648e-02 0.000000e+00 0.000000e+00
1
Step 465000
Ar -3.964607e-02 0.000000e+00 0.000000e+00
1
Step 466000
Ar -3.398314e-02 0.000000e+00 0.000000e+00
1
Step 467000
Ar -2.412452e-02 0.000000e+00 0.000000e+00
1
Step 468000
Ar -2.557975e-03 0.000000e+00 0.000000e+00
1
Step 469000
Ar 1.123532e-02 0.000000e+00 0.000000e+00
1
Step 470000
Ar 8.117666e-03 0.000000e+00 0.000000e+00
1
Step 471000
Ar -1.177237e-03 0.000000e+00 0.000000e+00
1
Step 472000
Ar -2.890410e-03 0.000000e+00 0.000000e+00
1
Step 473000
Ar -4.092597e-02 0.000000e+00 0.000000e+00
1
Step 474000
Ar -3.159215e-02 0.000000e+00 0.000000e+00
1
Step 475000
Ar -2.380670e-02 0.000000e+00 0.000000e+00
1
Step 476000
Ar 3.435328e-02 0.000000e+00 0.000000e+00
1
Step 477000
Ar 3.681867e-03 0.000000e+00 0.000000e+00
1
Step 478000
Ar -1.281390e-02 0.000000e+00 0.000000e+00
1
Step 479000
Ar 5.953483e-03 0.000000e+00 0.000000e+00
1
Step 480000
Ar 1.555492e-02 0.000000e+00 0.000000e+00
1
Step 481000
Ar -4.473549e-03 0.000000e+00 0.000000e+00
1
Step 482000
Ar -8.844007e-03 0.000000e+00 0.000000e+00
1
Step 483000
Ar -6.918985e-03 0.000000e+00 0.000000e+00
1
Step 484000
Ar 3.903099e-02 0.000000e+00 0.000000e+00
1
Step 485000
Ar 2.877033e-02 0.000000e+00 0.000000e+00
1
Step 486000
Ar 2.188777e-02 0.000000e+00 0.000000e+00
1
Step 487000
Ar -6.110012e-02 0.000000e+00 0.000000e+00
1
Step 488000
Ar 4.286131e-02 0.000000e+00 0.000000e+00
1
Step 489000
Ar 6.850662e-02 0.000000e+00 0.000000e+00
1
Step 490000
Ar -4.539458e-02 0.000000e+00 0.000000e+00
1
Step 491000
Ar 2.742489e-02 0.000000e+00 0.000000e+00
1
Step 492000
Ar 3.843960e-02 0.000000e+00 0.000000e+00
1
Step 493000
Ar -1.390887e-02 0.000000e+00 0.000000e+00
1
Step 494000
Ar 1.569657e-02 0.000000e+00 0.000000e+00
1
Step 495000
Ar 4.893445e-02 0.000000e+00 0.000000e+00
1
Step 496000
Ar -3.059539e-02 0.000000e+00 0.000000e+00
1
Step 497000
Ar 1.733255e-02 0.000000e+00 0.000000e+00
1
Step 498000
Ar 1.104508e-02 0.000000e+00 0.000000e+00
1
Step 499000
Ar -5.045718e-02 0.000000e+00 0.000000e+00
