1
Step 0
Ar 4.987877e+00 0.000000e+00 0.000000e+00
1
Step 1000
Ar 4.130387e+00 0.000000e+00 0.000000e+00
1
Step 2000
Ar 2.143602e+00 0.000000e+00 0.000000e+00
1
Step 3000
Ar -4.292691e-01 0.000000e+00 0.000000e+00
1
Step 4000
Ar -2.884773e+00 0.000000e+00 0.000000e+00
1
Step 5000
Ar -4.551547e+00 0.000000e+00 0.000000e+00
1
Step 6000
Ar -4.973875e+00 0.000000e+00 0.000000e+00
1
Step 7000
Ar -4.036289e+00 0.000000e+00 0.000000e+00
1
Step 8000
Ar -1.995134e+00 0.000000e+00 0.000000e+00
1
Step 9000
Ar 5.915125e-01 0.000000e+00 0.000000e+00
1
Step 10000
Ar 3.016433e+00 0.000000e+00 0.000000e+00
1
Step 11000
Ar 4.616626e+00 0.000000e+00 0.000000e+00
1
Step 12000
Ar 4.954580e+00 0.000000e+00 0.000000e+00
1
Step 13000
Ar 3.937895e+00 0.000000e+00 0.000000e+00
1
Step 14000
Ar 1.844544e+00 0.000000e+00 0.000000e+00
1
Step 15000
Ar -7.531266e-01 0.000000e+00 0.000000e+00
1
Step 16000
Ar -3.144884e+00 0.000000e+00 0.000000e+00
1
Step 17000
Ar -4.676794e+00 0.000000e+00 0.000000e+00
1
Step 18000
Ar -4.930014e+00 0.000000e+00 0.000000e+00
1
Step 19000
Ar -3.835312e+00 0.000000e+00 0.000000e+00
1
Step 20000
Ar -1.691991e+00 0.000000e+00 0.000000e+00
1
Step 21000
Ar 9.139393e-01 0.000000e+00 0.000000e+00
1
Step 22000
Ar 3.269988e+00 0.000000e+00 0.000000e+00
1
Step 23000
Ar 4.731985e+00 0.000000e+00 0.000000e+00
1
Step 24000
Ar 4.900202e+00 0.000000e+00 0.000000e+00
1
Step 25000
Ar 3.728648e+00 0.000000e+00 0.000000e+00
1
Step 26000
Ar 1.537638e+00 0.000000e+00 0.000000e+00
1
Step 27000
Ar -1.073780e+00 0.000000e+00 0.000000e+00
1
Step 28000
Ar -3.391613e+00 0.000000e+00 0.000000e+00
1
Step 29000
Ar -4.782141e+00 0.000000e+00 0.000000e+00
1
Step 30000
Ar -4.865176e+00 0.000000e+00 0.000000e+00
1
Step 31000
Ar -3.618016e+00 0.000000e+00 0.000000e+00
1
Step 32000
Ar -1.381649e+00 0.000000e+00 0.000000e+00
1
Step 33000
Ar 1.232477e+00 0.000000e+00 0.000000e+00
1
Step 34000
Ar 3.509630e+00 0.000000e+00 0.000000e+00
1
Step 35000
Ar 4.827209e+00 0.000000e+00 0.000000e+00
1
Step 36000
Ar 4.824974e+00 0.000000e+00 0.000000e+00
1
Step 37000
Ar 3.503535e+00 0.000000e+00 0.000000e+00
1
Step 38000
Ar 1.224190e+00 0.000000e+00 0.000000e+00
1
Step 39000
Ar -1.389864e+00 0.000000e+00 0.000000e+00
1
Step 40000
Ar -3.623912e+00 0.000000e+00 0.000000e+00
1
Step 41000
Ar -4.867141e+00 0.000000e+00 0.000000e+00
1
Step 42000
Ar -4.779638e+00 0.000000e+00 0.000000e+00
1
Step 43000
Ar -3.385326e+00 0.000000e+00 0.000000e+00
1
Step 44000
Ar -1.065428e+00 0.000000e+00 0.000000e+00
1
Step 45000
Ar 1.545771e+00 0.000000e+00 0.000000e+00
1
Step 46000
Ar 3.734339e+00 0.000000e+00 0.000000e+00
1
Step 47000
Ar 4.901895e+00 0.000000e+00 0.000000e+00
1
Step 48000
Ar 4.729216e+00 0.000000e+00 0.000000e+00
1
Step 49000
Ar 3.263516e+00 0.000000e+00 0.000000e+00
1
Step 50000
Ar 9.055322e-01 0.000000e+00 0.000000e+00
1
Step 51000
Ar -1.700034e+00 0.000000e+00 0.000000e+00
1
Step 52000
Ar -3.840792e+00 0.000000e+00 0.000000e+00
1
Step 53000
Ar -4.931432e+00 0.000000e+00 0.000000e+00
1
Step 54000
Ar -4.673763e+00 0.000000e+00 0.000000e+00
1
Step 55000
Ar -3.138232e+00 0.000000e+00 0.000000e+00
1
Step 56000
Ar -7.446732e-01 0.000000e+00 0.000000e+00
1
Step 57000
Ar 1.852488e+00 0.000000e+00 0.000000e+00
1
Step 58000
Ar 3.943158e+00 0.000000e+00 0.000000e+00
1
Step 59000
Ar 4.955723e+00 0.000000e+00 0.000000e+00
1
Step 60000
Ar 4.613336e+00 0.000000e+00 0.000000e+00
1
Step 61000
Ar 3.009610e+00 0.000000e+00 0.000000e+00
1
Step 62000
Ar 5.830219e-01 0.000000e+00 0.000000e+00
1
Step 63000
Ar -2.002971e+00 0.000000e+00 0.000000e+00
1
Step 64000
Ar -4.041329e+00 0.000000e+00 0.000000e+00
1
Step 65000
Ar -4.974741e+00 0.000000e+00 0.000000e+00
1
Step 66000
Ar -4.548001e+00 0.000000e+00 0.000000e+00
1
Step 67000
Ar -2.877785e+00 0.000000e+00 0.000000e+00
1
Step 68000
Ar -4.207503e-01 0.000000e+00 0.000000e+00
1
Step 69000
Ar 2.151323e+00 0.000000e+00 0.000000e+00
1
Step 70000
Ar 4.135200e+00 0.000000e+00 0.000000e+00
1
Step 71000
Ar 4.988465e+00 0.000000e+00 0.000000e+00
1
Step 72000
Ar 4.477827e+00 0.000000e+00 0.000000e+00
1
Step 73000
Ar 2.742899e+00 0.000000e+00 0.000000e+00
1
Step 74000
Ar 2.580309e-01 0.000000e+00 0.000000e+00
1
Step 75000
Ar -2.297386e+00 0.000000e+00 0.000000e+00
1
Step 76000
Ar -4.224671e+00 0.000000e+00 0.000000e+00
1
Step 77000
Ar -4.996882e+00 0.000000e+00 0.000000e+00
1
Step 78000
Ar -4.402888e+00 0.000000e+00 0.000000e+00
1
Step 79000
Ar -2.605094e+00 0.000000e+00 0.000000e+00
1
Step 80000
Ar -9.503707e-02 0.000000e+00 0.000000e+00
1
Step 81000
Ar 2.441004e+00 0.000000e+00 0.000000e+00
1
Step 82000
Ar 4.309646e+00 0.000000e+00 0.000000e+00
1
Step 83000
Ar 4.999982e+00 0.000000e+00 0.000000e+00
1
Step 84000
Ar 4.323265e+00 0.000000e+00 0.000000e+00
1
Step 85000
Ar 2.464517e+00 0.000000e+00 0.000000e+00
1
Step 86000
Ar -6.805792e-02 0.000000e+00 0.000000e+00
1
Step 87000
Ar -2.582025e+00 0.000000e+00 0.000000e+00
1
Step 88000
Ar -4.390037e+00 0.000000e+00 0.000000e+00
1
Step 89000
Ar -4.997762e+00 0.000000e+00 0.000000e+00
1
Step 90000
Ar -4.239041e+00 0.000000e+00 0.000000e+00
1
Step 91000
Ar -2.321318e+00 0.000000e+00 0.000000e+00
1
Step 92000
Ar 2.310805e-01 0.000000e+00 0.000000e+00
1
Step 93000
Ar 2.720299e+00 0.000000e+00 0.000000e+00
1
Step 94000
Ar 4.465756e+00 0.000000e+00 0.000000e+00
1
Step 95000
Ar 4.990224e+00 0.000000e+00 0.000000e+00
1
Step 96000
Ar 4.150307e+00 0.000000e+00 0.000000e+00
1
Step 97000
Ar 2.175649e+00 0.000000e+00 0.000000e+00
1
Step 98000
Ar -3.938572e-01 0.000000e+00 0.000000e+00
1
Step 99000
Ar -2.855678e+00 0.000000e+00 0.000000e+00
