1
Step 120000
Ar 9.244971e-01 0.000000e+00 0.000000e+00
1
Step 121000
Ar 9.937637e-01 0.000000e+00 0.000000e+00
1
Step 122000
Ar 7.301697e-01 0.000000e+00 0.000000e+00
1
Step 123000
Ar 1.009613e+00 0.000000e+00 0.000000e+00
1
Step 124000
Ar 9.713941e-01 0.000000e+00 0.000000e+00
1
Step 125000
Ar 1.186672e+00 0.000000e+00 0.000000e+00
1
Step 126000
Ar 1.206683e+00 0.000000e+00 0.000000e+00
1
Step 127000
Ar 1.205196e+00 0.000000e+00 0.000000e+00
1
Step 128000
Ar 1.286712e+00 0.000000e+00 0.000000e+00
1
Step 129000
Ar 1.302532e+00 0.000000e+00 0.000000e+00
1
Step 130000
Ar 1.208245e+00 0.000000e+00 0.000000e+00
1
Step 131000
Ar 1.215059e+00 0.000000e+00 0.000000e+00
1
Step 132000
Ar 1.214703e+00 0.000000e+00 0.000000e+00
1
Step 133000
Ar 1.304108e+00 0.000000e+00 0.000000e+00
1
Step 134000
Ar 1.239470e+00 0.000000e+00 0.000000e+00
1
Step 135000
Ar 1.226554e+00 0.000000e+00 0.000000e+00
1
Step 136000
Ar 1.232846e+00 0.000000e+00 0.000000e+00
1
Step 137000
Ar 1.217584e+00 0.000000e+00 0.000000e+00
1
Step 138000
Ar 1.198789e+00 0.000000e+00 0.000000e+00
1
Step 139000
Ar 1.197050e+00 0.000000e+00 0.000000e+00
1
Step 140000
Ar 5.157237e-01 0.000000e+00 0.000000e+00
1
Step 141000
Ar 8.128820e-01 0.000000e+00 0.000000e+00
1
Step 142000
Ar 6.532974e-01 0.000000e+00 0.000000e+00
1
Step 143000
Ar 1.151702e+00 0.000000e+00 0.000000e+00
1
Step 144000
Ar 1.032193e+00 0.000000e+00 0.000000e+00
1
Step 145000
Ar 9.391039e-01 0.000000e+00 0.000000e+00
1
Step 146000
Ar 8.911719e-01 0.000000e+00 0.000000e+00
1
Step 147000
Ar 9.643151e-01 0.000000e+00 0.000000e+00
1
Step 148000
Ar 1.016616e+00 0.000000e+00 0.000000e+00
1
Step 149000
Ar 9.828612e-01 0.000000e+00 0.000000e+00
1
Step 150000
Ar 9.734756e-01 0.000000e+00 0.000000e+00
1
Step 151000
Ar 1.069072e+00 0.000000e+00 0.000000e+00
1
Step 152000
Ar 9.912643e-01 0.000000e+00 0.000000e+00
1
Step 153000
Ar 9.547129e-01 0.000000e+00 0.000000e+00
1
Step 154000
Ar 9.822748e-01 0.000000e+00 0.000000e+00
1
Step 155000
Ar 9.175367e-01 0.000000e+00 0.000000e+00
1
Step 156000
Ar 9.204097e-01 0.000000e+00 0.000000e+00
1
Step 157000
Ar 9.281700e-01 0.000000e+00 0.000000e+00
1
Step 158000
Ar 8.847435e-01 0.000000e+00 0.000000e+00
1
Step 159000
Ar 8.857108e-01 0.000000e+00 0.000000e+00
1
Step 160000
Ar 8.969448e-01 0.000000e+00 0.000000e+00
1
Step 161000
Ar 9.165767e-01 0.000000e+00 0.000000e+00
1
Step 162000
Ar 8.910269e-01 0.000000e+00 0.000000e+00
1
Step 163000
Ar 8.962548e-01 0.000000e+00 0.000000e+00
1
Step 164000
Ar 9.030920e-01 0.000000e+00 0.000000e+00
1
Step 165000
Ar 9.041767e-01 0.000000e+00 0.000000e+00
1
Step 166000
Ar 9.190229e-01 0.000000e+00 0.000000e+00
1
Step 167000
Ar 9.121798e-01 0.000000e+00 0.000000e+00
1
Step 168000
Ar 8.887712e-01 0.000000e+00 0.000000e+00
1
Step 169000
Ar 9.179072e-01 0.000000e+00 0.000000e+00
1
Step 170000
Ar 9.006468e-01 0.000000e+00 0.000000e+00
1
Step 171000
Ar 8.860981e-01 0.000000e+00 0.000000e+00
1
Step 172000
Ar 8.963787e-01 0.000000e+00 0.000000e+00
1
Step 173000
Ar 9.007347e-01 0.000000e+00 0.000000e+00
1
Step 174000
Ar 9.332875e-01 0.000000e+00 0.000000e+00
1
Step 175000
Ar 7.953577e-01 0.000000e+00 0.000000e+00
1
Step 176000
Ar 8.257888e-01 0.000000e+00 0.000000e+00
1
Step 177000
Ar 8.339917e-01 0.000000e+00 0.000000e+00
1
Step 178000
Ar 8.326426e-01 0.000000e+00 0.000000e+00
1
Step 179000
Ar 8.250227e-01 0.000000e+00 0.000000e+00
1
Step 180000
Ar 8.493447e-01 0.000000e+00 0.000000e+00
1
Step 181000
Ar 9.359765e-01 0.000000e+00 0.000000e+00
1
Step 182000
Ar 9.349460e-01 0.000000e+00 0.000000e+00
1
Step 183000
Ar 9.333569e-01 0.000000e+00 0.000000e+00
1
Step 184000
Ar 9.332700e-01 0.000000e+00 0.000000e+00
1
Step 185000
Ar 9.325676e-01 0.000000e+00 0.000000e+00
1
Step 186000
Ar 9.313370e-01 0.000000e+00 0.000000e+00
1
Step 187000
Ar 1.094413e+00 0.000000e+00 0.000000e+00
1
Step 188000
Ar 1.151819e+00 0.000000e+00 0.000000e+00
1
Step 189000
Ar 1.154585e+00 0.000000e+00 0.000000e+00
1
Step 190000
Ar 1.134759e+00 0.000000e+00 0.000000e+00
1
Step 191000
Ar 1.158850e+00 0.000000e+00 0.000000e+00
1
Step 192000
Ar 1.055764e+00 0.000000e+00 0.000000e+00
1
Step 193000
Ar 1.044912e+00 0.000000e+00 0.000000e+00
1
Step 194000
Ar 1.054895e+00 0.000000e+00 0.000000e+00
1
Step 195000
Ar 1.068173e+00 0.000000e+00 0.000000e+00
1
Step 196000
Ar 1.046695e+00 0.000000e+00 0.000000e+00
1
Step 197000
Ar 1.044402e+00 0.000000e+00 0.000000e+00
1
Step 198000
Ar 1.040475e+00 0.000000e+00 0.000000e+00
1
Step 199000
Ar 1.024256e+00 0.000000e+00 0.000000e+00
1
Step 200000
Ar 1.037153e+00 0.000000e+00 0.000000e+00
1
Step 201000
Ar 1.041947e+00 0.000000e+00 0.000000e+00
1
Step 202000
Ar 9.950076e-01 0.000000e+00 0.000000e+00
1
Step 203000
Ar 9.986628e-01 0.000000e+00 0.000000e+00
1
Step 204000
Ar 1.069568e+00 0.000000e+00 0.000000e+00
1
Step 205000
Ar 1.045981e+00 0.000000e+00 0.000000e+00
1
Step 206000
Ar 1.044094e+00 0.000000e+00 0.000000e+00
1
Step 207000
Ar 1.046600e+00 0.000000e+00 0.000000e+00
1
Step 208000
Ar 1.037804e+00 0.000000e+00 0.000000e+00
1
Step 209000
Ar 1.047102e+00 0.000000e+00 0.000000e+00
1
Step 210000
Ar 1.042229e+00 0.000000e+00 0.000000e+00
1
Step 211000
Ar 1.036729e+00 0.000000e+00 0.000000e+00
1
Step 212000
Ar 1.018819e+00 0.000000e+00 0.000000e+00
1
Step 213000
Ar 9.625458e-01 0.000000e+00 0.000000e+00
1
Step 214000
Ar 9.610606e-01 0.000000e+00 0.000000e+00
1
Step 215000
Ar 9.657660e-01 0.000000e+00 0.000000e+00
1
Step 216000
Ar 9.713743e-01 0.000000e+00 0.000000e+00
1
Step 217000
Ar 9.587709e-01 0.000000e+00 0.000000e+00
1
Step 218000
Ar 9.616228e-01 0.000000e+00 0.000000e+00
1
Step 219000
Ar 9.632954e-01 0.000000e+00 0.000000e+00
1
Step 220000
Ar 9.588645e-01 0.000000e+00 0.000000e+00
1
Step 221000
Ar 1.125822e+00 0.000000e+00 0.000000e+00
1
Step 222000
Ar 7.743726e-01 0.000000e+00 0.000000e+00
1
Step 223000
Ar 7.302245e-01 0.000000e+00 0.000000e+00
1
Step 224000
Ar 7.850214e-01 0.000000e+00 0.000000e+00
1
Step 225000
Ar -1.052823e+00 0.000000e+00 0.000000e+00
1
Step 226000
Ar -9.226900e-01 0.000000e+00 0.000000e+00
1
Step 227000
Ar -1.135709e+00 0.000000e+00 0.000000e+00
1
Step 228000
Ar -9.233752e-01 0.000000e+00 0.000000e+00
1
Step 229000
Ar -1.022879e+00 0.000000e+00 0.000000e+00
1
Step 230000
Ar -9.156445e-01 0.000000e+00 0.000000e+00
1
Step 231000
Ar -1.137266e+00 0.000000e+00 0.000000e+00
1
Step 232000
Ar -1.082999e+00 0.000000e+00 0.000000e+00
1
Step 233000
Ar -7.701462e-01 0.000000e+00 0.000000e+00
1
Step 234000
Ar -8.979828e-01 0.000000e+00 0.000000e+00
1
Step 235000
Ar -9.897372e-01 0.000000e+00 0.000000e+00
1
Step 236000
Ar -8.770590e-01 0.000000e+00 0.000000e+00
1
Step 237000
Ar -9.145779e-01 0.000000e+00 0.000000e+00
1
Step 238000
Ar -8.559145e-01 0.000000e+00 0.000000e+00
1
Step 239000
Ar -8.104169e-01 0.000000e+00 0.000000e+00
1
Step 240000
Ar -8.183260e-01 0.000000e+00 0.000000e+00
1
Step 241000
Ar -8.009024e-01 0.000000e+00 0.000000e+00
1
Step 242000
Ar -7.926838e-01 0.000000e+00 0.000000e+00
1
Step 243000
Ar -7.295554e-01 0.000000e+00 0.000000e+00
1
Step 244000
Ar -8.688499e-01 0.000000e+00 0.000000e+00
1
Step 245000
Ar -7.009146e-01 0.000000e+00 0.000000e+00
1
Step 246000
Ar -8.720824e-01 0.000000e+00 0.000000e+00
1
Step 247000
Ar -7.713451e-01 0.000000e+00 0.000000e+00
1
Step 248000
Ar -8.097087e-01 0.000000e+00 0.000000e+00
1
Step 249000
Ar -8.261482e-01 0.000000e+00 0.000000e+00
1
Step 250000
Ar -8.287084e-01 0.000000e+00 0.000000e+00
1
Step 251000
Ar -8.067625e-01 0.000000e+00 0.000000e+00
1
Step 252000
Ar -9.888615e-01 0.000000e+00 0.000000e+00
1
Step 253000
Ar -9.814698e-01 0.000000e+00 0.000000e+00
1
Step 254000
Ar -9.329887e-01 0.000000e+00 0.000000e+00
1
Step 255000
Ar -9.257342e-01 0.000000e+00 0.000000e+00
1
Step 256000
Ar -9.207122e-01 0.000000e+00 0.000000e+00
1
Step 257000
Ar -9.164681e-01 0.000000e+00 0.000000e+00
1
Step 258000
Ar -9.170711e-01 0.000000e+00 0.000000e+00
1
Step 259000
Ar -9.299898e-01 0.000000e+00 0.000000e+00
1
Step 260000
Ar -9.226267e-01 0.000000e+00 0.000000e+00
1
Step 261000
Ar -9.230096e-01 0.000000e+00 0.000000e+00
1
Step 262000
Ar -9.324905e-01 0.000000e+00 0.000000e+00
1
Step 263000
Ar -9.085824e-01 0.000000e+00 0.000000e+00
1
Step 264000
Ar -9.149197e-01 0.000000e+00 0.000000e+00
1
Step 265000
Ar -9.280245e-01 0.000000e+00 0.000000e+00
1
Step 266000
Ar -9.106537e-01 0.000000e+00 0.000000e+00
1
Step 267000
Ar -9.141126e-01 0.000000e+00 0.000000e+00
1
Step 268000
Ar -9.144032e-01 0.000000e+00 0.000000e+00
1
Step 269000
Ar -9.136570e-01 0.000000e+00 0.000000e+00
1
Step 270000
Ar -9.115360e-01 0.000000e+00 0.000000e+00
1
Step 271000
Ar -3.546177e-01 0.000000e+00 0.000000e+00
1
Step 272000
Ar -8.497373e-01 0.000000e+00 0.000000e+00
1
Step 273000
Ar -8.199228e-01 0.000000e+00 0.000000e+00
1
Step 274000
Ar -8.188888e-01 0.000000e+00 0.000000e+00
1
Step 275000
Ar -8.506417e-01 0.000000e+00 0.000000e+00
1
Step 276000
Ar -7.658666e-01 0.000000e+00 0.000000e+00
1
Step 277000
Ar -7.170235e-01 0.000000e+00 0.000000e+00
1
Step 278000
Ar -7.907397e-01 0.000000e+00 0.000000e+00
1
Step 279000
Ar -7.566986e-01 0.000000e+00 0.000000e+00
1
Step 280000
Ar -7.635329e-01 0.000000e+00 0.000000e+00
1
Step 281000
Ar -8.032027e-01 0.000000e+00 0.000000e+00
1
Step 282000
Ar -7.969604e-01 0.000000e+00 0.000000e+00
1
Step 283000
Ar -7.621561e-01 0.000000e+00 0.000000e+00
1
Step 284000
Ar -7.973266e-01 0.000000e+00 0.000000e+00
1
Step 285000
Ar -7.440148e-01 0.000000e+00 0.000000e+00
1
Step 286000
Ar -7.498454e-01 0.000000e+00 0.000000e+00
1
Step 287000
Ar -7.363705e-01 0.000000e+00 0.000000e+00
1
Step 288000
Ar -7.438737e-01 0.000000e+00 0.000000e+00
1
Step 289000
Ar -6.559205e-01 0.000000e+00 0.000000e+00
1
Step 290000
Ar -6.480624e-01 0.000000e+00 0.000000e+00
1
Step 291000
Ar -6.770014e-01 0.000000e+00 0.000000e+00
1
Step 292000
Ar -5.962059e-01 0.000000e+00 0.000000e+00
1
Step 293000
Ar -6.744583e-01 0.000000e+00 0.000000e+00
1
Step 294000
Ar -6.378604e-01 0.000000e+00 0.000000e+00
1
Step 295000
Ar -6.870114e-01 0.000000e+00 0.000000e+00
1
Step 296000
Ar -6.391074e-01 0.000000e+00 0.000000e+00
1
Step 297000
Ar -6.695733e-01 0.000000e+00 0.000000e+00
1
Step 298000
Ar -6.425593e-01 0.000000e+00 0.000000e+00
1
Step 299000
Ar -6.546259e-01 0.000000e+00 0.000000e+00
1
Step 300000
Ar -6.628250e-01 0.000000e+00 0.000000e+00
1
Step 301000
Ar -6.799620e-01 0.000000e+00 0.000000e+00
1
Step 302000
Ar -6.443801e-01 0.000000e+00 0.000000e+00
1
Step 303000
Ar -6.915129e-01 0.000000e+00 0.000000e+00
1
Step 304000
Ar -6.631590e-01 0.000000e+00 0.000000e+00
1
Step 305000
Ar -5.982010e-01 0.000000e+00 0.000000e+00
1
Step 306000
Ar -4.572658e-01 0.000000e+00 0.000000e+00
1
Step 307000
Ar -6.183975e-01 0.000000e+00 0.000000e+00
1
Step 308000
Ar -5.997208e-01 0.000000e+00 0.000000e+00
1
Step 309000
Ar -5.826315e-01 0.000000e+00 0.000000e+00
1
Step 310000
Ar -6.987469e-01 0.000000e+00 0.000000e+00
1
Step 311000
Ar -6.598421e-01 0.000000e+00 0.000000e+00
1
Step 312000
Ar -5.907735e-01 0.000000e+00 0.000000e+00
1
Step 313000
Ar -6.097735e-01 0.000000e+00 0.000000e+00
1
Step 314000
Ar -6.418035e-01 0.000000e+00 0.000000e+00
1
Step 315000
Ar -5.855798e-01 0.000000e+00 0.000000e+00
1
Step 316000
Ar -7.075737e-01 0.000000e+00 0.000000e+00
1
Step 317000
Ar -6.895725e-01 0.000000e+00 0.000000e+00
1
Step 318000
Ar -6.674195e-01 0.000000e+00 0.000000e+00
1
Step 319000
Ar -6.710229e-01 0.000000e+00 0.000000e+00
1
Step 320000
Ar -6.994917e-01 0.000000e+00 0.000000e+00
1
Step 321000
Ar -6.955438e-01 0.000000e+00 0.000000e+00
1
Step 322000
Ar -7.090577e-01 0.000000e+00 0.000000e+00
1
Step 323000
Ar -6.945541e-01 0.000000e+00 0.000000e+00
1
Step 324000
Ar -6.920172e-01 0.000000e+00 0.000000e+00
1
Step 325000
Ar -7.056850e-01 0.000000e+00 0.000000e+00
1
Step 326000
Ar -7.074990e-01 0.000000e+00 0.000000e+00
1
Step 327000
Ar -7.070167e-01 0.000000e+00 0.000000e+00
1
Step 328000
Ar -1.095316e+00 0.000000e+00 0.000000e+00
1
Step 329000
Ar -1.139359e+00 0.000000e+00 0.000000e+00
1
Step 330000
Ar -1.145799e+00 0.000000e+00 0.000000e+00
1
Step 331000
Ar -1.143637e+00 0.000000e+00 0.000000e+00
1
Step 332000
Ar -1.145354e+00 0.000000e+00 0.000000e+00
1
Step 333000
Ar -1.144926e+00 0.000000e+00 0.000000e+00
1
Step 334000
Ar -1.144129e+00 0.000000e+00 0.000000e+00
1
Step 335000
Ar -1.142749e+00 0.000000e+00 0.000000e+00
1
Step 336000
Ar -1.142915e+00 0.000000e+00 0.000000e+00
1
Step 337000
Ar -1.140703e+00 0.000000e+00 0.000000e+00
1
Step 338000
Ar -1.093575e+00 0.000000e+00 0.000000e+00
1
Step 339000
Ar -1.092833e+00 0.000000e+00 0.000000e+00
1
Step 340000
Ar -1.078624e+00 0.000000e+00 0.000000e+00
1
Step 341000
Ar -1.076711e+00 0.000000e+00 0.000000e+00
1
Step 342000
Ar -9.610076e-01 0.000000e+00 0.000000e+00
1
Step 343000
Ar -1.156665e+00 0.000000e+00 0.000000e+00
1
Step 344000
Ar -1.220018e+00 0.000000e+00 0.000000e+00
1
Step 345000
Ar -1.212186e+00 0.000000e+00 0.000000e+00
1
Step 346000
Ar -1.244108e+00 0.000000e+00 0.000000e+00
1
Step 347000
Ar -1.195755e+00 0.000000e+00 0.000000e+00
1
Step 348000
Ar -1.181337e+00 0.000000e+00 0.000000e+00
1
Step 349000
Ar -1.210307e+00 0.000000e+00 0.000000e+00
1
Step 350000
Ar -1.191593e+00 0.000000e+00 0.000000e+00
1
Step 351000
Ar -1.186416e+00 0.000000e+00 0.000000e+00
1
Step 352000
Ar -1.352928e+00 0.000000e+00 0.000000e+00
1
Step 353000
Ar -1.233140e+00 0.000000e+00 0.000000e+00
1
Step 354000
Ar -1.219776e+00 0.000000e+00 0.000000e+00
1
Step 355000
Ar -1.221491e+00 0.000000e+00 0.000000e+00
1
Step 356000
Ar -1.230563e+00 0.000000e+00 0.000000e+00
1
Step 357000
Ar -1.264149e+00 0.000000e+00 0.000000e+00
1
Step 358000
Ar -1.254628e+00 0.000000e+00 0.000000e+00
1
Step 359000
Ar -1.396718e+00 0.000000e+00 0.000000e+00
1
Step 360000
Ar -1.185267e+00 0.000000e+00 0.000000e+00
1
Step 361000
Ar -1.172634e+00 0.000000e+00 0.000000e+00
1
Step 362000
Ar -1.173295e+00 0.000000e+00 0.000000e+00
1
Step 363000
Ar -1.171870e+00 0.000000e+00 0.000000e+00
1
Step 364000
Ar -1.182838e+00 0.000000e+00 0.000000e+00
1
Step 365000
Ar -1.184368e+00 0.000000e+00 0.000000e+00
1
Step 366000
Ar -1.187755e+00 0.000000e+00 0.000000e+00
1
Step 367000
Ar -1.184764e+00 0.000000e+00 0.000000e+00
1
Step 368000
Ar -1.098613e+00 0.000000e+00 0.000000e+00
1
Step 369000
Ar -1.088894e+00 0.000000e+00 0.000000e+00
1
Step 370000
Ar -1.093024e+00 0.000000e+00 0.000000e+00
1
Step 371000
Ar -1.087156e+00 0.000000e+00 0.000000e+00
1
Step 372000
Ar -1.093349e+00 0.000000e+00 0.000000e+00
1
Step 373000
Ar -1.092442e+00 0.000000e+00 0.000000e+00
1
Step 374000
Ar -1.093924e+00 0.000000e+00 0.000000e+00
1
Step 375000
Ar -1.094806e+00 0.000000e+00 0.000000e+00
1
Step 376000
Ar -1.090379e+00 0.000000e+00 0.000000e+00
1
Step 377000
Ar -1.087439e+00 0.000000e+00 0.000000e+00
1
Step 378000
Ar -1.086617e+00 0.000000e+00 0.000000e+00
1
Step 379000
Ar -1.096270e+00 0.000000e+00 0.000000e+00
1
Step 380000
Ar -1.097908e+00 0.000000e+00 0.000000e+00
1
Step 381000
Ar -1.091836e+00 0.000000e+00 0.000000e+00
1
Step 382000
Ar -1.094414e+00 0.000000e+00 0.000000e+00
1
Step 383000
Ar -1.090599e+00 0.000000e+00 0.000000e+00
1
Step 384000
Ar -1.096129e+00 0.000000e+00 0.000000e+00
1
Step 385000
Ar -1.271680e+00 0.000000e+00 0.000000e+00
1
Step 386000
Ar -1.260228e+00 0.000000e+00 0.000000e+00
1
Step 387000
Ar -1.277887e+00 0.000000e+00 0.000000e+00
1
Step 388000
Ar -1.273012e+00 0.000000e+00 0.000000e+00
1
Step 389000
Ar -1.266883e+00 0.000000e+00 0.000000e+00
1
Step 390000
Ar -1.256367e+00 0.000000e+00 0.000000e+00
1
Step 391000
Ar -1.265239e+00 0.000000e+00 0.000000e+00
1
Step 392000
Ar -1.253669e+00 0.000000e+00 0.000000e+00
1
Step 393000
Ar -1.259014e+00 0.000000e+00 0.000000e+00
1
Step 394000
Ar -1.061560e+00 0.000000e+00 0.000000e+00
1
Step 395000
Ar -1.063149e+00 0.000000e+00 0.000000e+00
1
Step 396000
Ar -1.061233e+00 0.000000e+00 0.000000e+00
1
Step 397000
Ar -1.064409e+00 0.000000e+00 0.000000e+00
1
Step 398000
Ar -1.172670e+00 0.000000e+00 0.000000e+00
1
Step 399000
Ar -1.175994e+00 0.000000e+00 0.000000e+00
1
Step 400000
Ar -1.169982e+00 0.000000e+00 0.000000e+00
1
Step 401000
Ar -1.178199e+00 0.000000e+00 0.000000e+00
1
Step 402000
Ar -1.212444e+00 0.000000e+00 0.000000e+00
1
Step 403000
Ar -1.211457e+00 0.000000e+00 0.000000e+00
1
Step 404000
Ar -1.212067e+00 0.000000e+00 0.000000e+00
1
Step 405000
Ar -1.210424e+00 0.000000e+00 0.000000e+00
1
Step 406000
Ar -1.211606e+00 0.000000e+00 0.000000e+00
1
Step 407000
Ar -1.208954e+00 0.000000e+00 0.000000e+00
1
Step 408000
Ar -1.213951e+00 0.000000e+00 0.000000e+00
1
Step 409000
Ar -1.211502e+00 0.000000e+00 0.000000e+00
1
Step 410000
Ar -1.212589e+00 0.000000e+00 0.000000e+00
1
Step 411000
Ar -1.215158e+00 0.000000e+00 0.000000e+00
1
Step 412000
Ar -1.209322e+00 0.000000e+00 0.000000e+00
1
Step 413000
Ar -1.213532e+00 0.000000e+00 0.000000e+00
1
Step 414000
Ar -1.208279e+00 0.000000e+00 0.000000e+00
1
Step 415000
Ar -1.211314e+00 0.000000e+00 0.000000e+00
1
Step 416000
Ar -1.211294e+00 0.000000e+00 0.000000e+00
1
Step 417000
Ar -1.277352e+00 0.000000e+00 0.000000e+00
1
Step 418000
Ar -1.271699e+00 0.000000e+00 0.000000e+00
1
Step 419000
Ar -1.272905e+00 0.000000e+00 0.000000e+00
1
Step 420000
Ar -1.275024e+00 0.000000e+00 0.000000e+00
1
Step 421000
Ar -1.273161e+00 0.000000e+00 0.000000e+00
1
Step 422000
Ar -1.269468e+00 0.000000e+00 0.000000e+00
1
Step 423000
Ar -1.271219e+00 0.000000e+00 0.000000e+00
1
Step 424000
Ar -1.013384e+00 0.000000e+00 0.000000e+00
1
Step 425000
Ar -1.017305e+00 0.000000e+00 0.000000e+00
1
Step 426000
Ar -1.018281e+00 0.000000e+00 0.000000e+00
1
Step 427000
Ar -9.607760e-01 0.000000e+00 0.000000e+00
1
Step 428000
Ar -9.843991e-01 0.000000e+00 0.000000e+00
1
Step 429000
Ar -9.871671e-01 0.000000e+00 0.000000e+00
1
Step 430000
Ar -9.867357e-01 0.000000e+00 0.000000e+00
1
Step 431000
Ar -9.839749e-01 0.000000e+00 0.000000e+00
1
Step 432000
Ar -9.812967e-01 0.000000e+00 0.000000e+00
1
Step 433000
Ar -9.821749e-01 0.000000e+00 0.000000e+00
1
Step 434000
Ar -9.613929e-01 0.000000e+00 0.000000e+00
1
Step 435000
Ar -1.349908e+00 0.000000e+00 0.000000e+00
1
Step 436000
Ar -1.328185e+00 0.000000e+00 0.000000e+00
1
Step 437000
Ar -1.337792e+00 0.000000e+00 0.000000e+00
1
Step 438000
Ar -1.329231e+00 0.000000e+00 0.000000e+00
1
Step 439000
Ar -1.312639e+00 0.000000e+00 0.000000e+00
1
Step 440000
Ar -1.342667e+00 0.000000e+00 0.000000e+00
1
Step 441000
Ar -1.302099e+00 0.000000e+00 0.000000e+00
1
Step 442000
Ar -1.361202e+00 0.000000e+00 0.000000e+00
1
Step 443000
Ar -1.343260e+00 0.000000e+00 0.000000e+00
1
Step 444000
Ar -1.351568e+00 0.000000e+00 0.000000e+00
1
Step 445000
Ar -1.361122e+00 0.000000e+00 0.000000e+00
1
Step 446000
Ar -1.344259e+00 0.000000e+00 0.000000e+00
1
Step 447000
Ar -1.387559e+00 0.000000e+00 0.000000e+00
1
Step 448000
Ar -1.431437e+00 0.000000e+00 0.000000e+00
1
Step 449000
Ar -1.438794e+00 0.000000e+00 0.000000e+00
1
Step 450000
Ar -1.418882e+00 0.000000e+00 0.000000e+00
1
Step 451000
Ar -1.390001e+00 0.000000e+00 0.000000e+00
1
Step 452000
Ar -1.403334e+00 0.000000e+00 0.000000e+00
1
Step 453000
Ar -1.222704e+00 0.000000e+00 0.000000e+00
1
Step 454000
Ar -1.232020e+00 0.000000e+00 0.000000e+00
1
Step 455000
Ar -1.303133e+00 0.000000e+00 0.000000e+00
1
Step 456000
Ar -1.300286e+00 0.000000e+00 0.000000e+00
1
Step 457000
Ar -1.299067e+00 0.000000e+00 0.000000e+00
1
Step 458000
Ar -1.406440e+00 0.000000e+00 0.000000e+00
1
Step 459000
Ar -1.423152e+00 0.000000e+00 0.000000e+00
1
Step 460000
Ar -1.399067e+00 0.000000e+00 0.000000e+00
1
Step 461000
Ar -1.433100e+00 0.000000e+00 0.000000e+00
1
Step 462000
Ar -1.432944e+00 0.000000e+00 0.000000e+00
1
Step 463000
Ar -1.459872e+00 0.000000e+00 0.000000e+00
1
Step 464000
Ar -1.423002e+00 0.000000e+00 0.000000e+00
1
Step 465000
Ar -1.449791e+00 0.000000e+00 0.000000e+00
1
Step 466000
Ar -1.346555e+00 0.000000e+00 0.000000e+00
1
Step 467000
Ar -1.346730e+00 0.000000e+00 0.000000e+00
1
Step 468000
Ar -1.353931e+00 0.000000e+00 0.000000e+00
1
Step 469000
Ar -1.357936e+00 0.000000e+00 0.000000e+00
1
Step 470000
Ar -1.318088e+00 0.000000e+00 0.000000e+00
1
Step 471000
Ar -1.299642e+00 0.000000e+00 0.000000e+00
1
Step 472000
Ar -1.295961e+00 0.000000e+00 0.000000e+00
1
Step 473000
Ar -1.296914e+00 0.000000e+00 0.000000e+00
1
Step 474000
Ar -1.297944e+00 0.000000e+00 0.000000e+00
1
Step 475000
Ar -1.313280e+00 0.000000e+00 0.000000e+00
1
Step 476000
Ar -6.603507e-01 0.000000e+00 0.000000e+00
1
Step 477000
Ar -6.776221e-01 0.000000e+00 0.000000e+00
1
Step 478000
Ar -6.798819e-01 0.000000e+00 0.000000e+00
1
Step 479000
Ar -6.394868e-01 0.000000e+00 0.000000e+00
1
Step 480000
Ar -6.245910e-01 0.000000e+00 0.000000e+00
1
Step 481000
Ar -5.746634e-01 0.000000e+00 0.000000e+00
1
Step 482000
Ar -6.370042e-01 0.000000e+00 0.000000e+00
1
Step 483000
Ar -6.290225e-01 0.000000e+00 0.000000e+00
1
Step 484000
Ar -4.922240e-01 0.000000e+00 0.000000e+00
1
Step 485000
Ar -4.885574e-01 0.000000e+00 0.000000e+00
1
Step 486000
Ar -3.923610e-01 0.000000e+00 0.000000e+00
1
Step 487000
Ar -5.491818e-01 0.000000e+00 0.000000e+00
1
Step 488000
Ar -5.224236e-01 0.000000e+00 0.000000e+00
1
Step 489000
Ar -3.902374e-01 0.000000e+00 0.000000e+00
1
Step 490000
Ar -5.053322e-01 0.000000e+00 0.000000e+00
1
Step 491000
Ar -5.067259e-01 0.000000e+00 0.000000e+00
1
Step 492000
Ar -5.479832e-01 0.000000e+00 0.000000e+00
1
Step 493000
Ar -5.103434e-01 0.000000e+00 0.000000e+00
1
Step 494000
Ar -5.176457e-01 0.000000e+00 0.000000e+00
1
Step 495000
Ar -5.443157e-01 0.000000e+00 0.000000e+00
1
Step 496000
Ar -5.391239e-01 0.000000e+00 0.000000e+00
1
Step 497000
Ar -5.783642e-01 0.000000e+00 0.000000e+00
1
Step 498000
Ar -5.773558e-01 0.000000e+00 0.000000e+00
1
Step 499000
Ar -5.757801e-01 0.000000e+00 0.000000e+00
1
Step 500000
Ar -5.832242e-01 0.000000e+00 0.000000e+00
1
Step 501000
Ar -1.118732e+00 0.000000e+00 0.000000e+00
1
Step 502000
Ar -1.121078e+00 0.000000e+00 0.000000e+00
1
Step 503000
Ar -1.120144e+00 0.000000e+00 0.000000e+00
1
Step 504000
Ar -1.120017e+00 0.000000e+00 0.000000e+00
1
Step 505000
Ar -1.120890e+00 0.000000e+00 0.000000e+00
1
Step 506000
Ar -1.120801e+00 0.000000e+00 0.000000e+00
1
Step 507000
Ar -1.146635e+00 0.000000e+00 0.000000e+00
1
Step 508000
Ar -4.857494e-01 0.000000e+00 0.000000e+00
1
Step 509000
Ar -5.018843e-01 0.000000e+00 0.000000e+00
1
Step 510000
Ar -4.929011e-01 0.000000e+00 0.000000e+00
1
Step 511000
Ar -4.842349e-01 0.000000e+00 0.000000e+00
1
Step 512000
Ar -4.690264e-01 0.000000e+00 0.000000e+00
1
Step 513000
Ar -4.765149e-01 0.000000e+00 0.000000e+00
1
Step 514000
Ar -4.813181e-01 0.000000e+00 0.000000e+00
1
Step 515000
Ar -4.867349e-01 0.000000e+00 0.000000e+00
1
Step 516000
Ar -4.794769e-01 0.000000e+00 0.000000e+00
1
Step 517000
Ar -4.499751e-01 0.000000e+00 0.000000e+00
1
Step 518000
Ar -4.564283e-01 0.000000e+00 0.000000e+00
1
Step 519000
Ar -3.907753e-01 0.000000e+00 0.000000e+00
1
Step 520000
Ar -4.342357e-01 0.000000e+00 0.000000e+00
1
Step 521000
Ar -4.792804e-01 0.000000e+00 0.000000e+00
1
Step 522000
Ar -4.690588e-01 0.000000e+00 0.000000e+00
1
Step 523000
Ar -4.897521e-01 0.000000e+00 0.000000e+00
1
Step 524000
Ar -4.873342e-01 0.000000e+00 0.000000e+00
1
Step 525000
Ar -4.742781e-01 0.000000e+00 0.000000e+00
1
Step 526000
Ar -4.884954e-01 0.000000e+00 0.000000e+00
1
Step 527000
Ar -4.816100e-01 0.000000e+00 0.000000e+00
1
Step 528000
Ar -4.819249e-01 0.000000e+00 0.000000e+00
1
Step 529000
Ar -4.836623e-01 0.000000e+00 0.000000e+00
1
Step 530000
Ar -4.889815e-01 0.000000e+00 0.000000e+00
1
Step 531000
Ar -4.658818e-01 0.000000e+00 0.000000e+00
1
Step 532000
Ar 6.280908e-01 0.000000e+00 0.000000e+00
1
Step 533000
Ar 7.472769e-01 0.000000e+00 0.000000e+00
1
Step 534000
Ar 7.570479e-01 0.000000e+00 0.000000e+00
1
Step 535000
Ar 6.821898e-01 0.000000e+00 0.000000e+00
1
Step 536000
Ar 7.270847e-01 0.000000e+00 0.000000e+00
1
Step 537000
Ar 7.058683e-01 0.000000e+00 0.000000e+00
1
Step 538000
Ar 6.326153e-01 0.000000e+00 0.000000e+00
1
Step 539000
Ar 6.791849e-01 0.000000e+00 0.000000e+00
1
Step 540000
Ar 7.337176e-01 0.000000e+00 0.000000e+00
1
Step 541000
Ar 7.029662e-01 0.000000e+00 0.000000e+00
1
Step 542000
Ar 6.081218e-01 0.000000e+00 0.000000e+00
1
Step 543000
Ar 5.934411e-01 0.000000e+00 0.000000e+00
1
Step 544000
Ar 5.905023e-01 0.000000e+00 0.000000e+00
1
Step 545000
Ar 6.119293e-01 0.000000e+00 0.000000e+00
1
Step 546000
Ar 5.885288e-01 0.000000e+00 0.000000e+00
1
Step 547000
Ar 5.924299e-01 0.000000e+00 0.000000e+00
1
Step 548000
Ar 7.347159e-01 0.000000e+00 0.000000e+00
1
Step 549000
Ar 7.851074e-01 0.000000e+00 0.000000e+00
1
Step 550000
Ar 8.843790e-01 0.000000e+00 0.000000e+00
1
Step 551000
Ar 8.745002e-01 0.000000e+00 0.000000e+00
1
Step 552000
Ar 9.047478e-01 0.000000e+00 0.000000e+00
1
Step 553000
Ar 8.969179e-01 0.000000e+00 0.000000e+00
1
Step 554000
Ar 9.127570e-01 0.000000e+00 0.000000e+00
1
Step 555000
Ar 9.106798e-01 0.000000e+00 0.000000e+00
1
Step 556000
Ar 6.623372e-01 0.000000e+00 0.000000e+00
1
Step 557000
Ar 6.522236e-01 0.000000e+00 0.000000e+00
1
Step 558000
Ar 6.511697e-01 0.000000e+00 0.000000e+00
1
Step 559000
Ar 5.046736e-01 0.000000e+00 0.000000e+00
1
Step 560000
Ar 3.889041e-01 0.000000e+00 0.000000e+00
1
Step 561000
Ar 5.201030e-01 0.000000e+00 0.000000e+00
1
Step 562000
Ar 4.362713e-01 0.000000e+00 0.000000e+00
1
Step 563000
Ar 4.733306e-01 0.000000e+00 0.000000e+00
1
Step 564000
Ar 5.284651e-01 0.000000e+00 0.000000e+00
1
Step 565000
Ar 3.914431e-01 0.000000e+00 0.000000e+00
1
Step 566000
Ar 5.005435e-01 0.000000e+00 0.000000e+00
1
Step 567000
Ar 4.605069e-01 0.000000e+00 0.000000e+00
1
Step 568000
Ar 3.999493e-01 0.000000e+00 0.000000e+00
1
Step 569000
Ar 3.596112e-01 0.000000e+00 0.000000e+00
1
Step 570000
Ar 4.614440e-01 0.000000e+00 0.000000e+00
1
Step 571000
Ar 4.158296e-01 0.000000e+00 0.000000e+00
1
Step 572000
Ar 4.182113e-01 0.000000e+00 0.000000e+00
1
Step 573000
Ar 4.448220e-01 0.000000e+00 0.000000e+00
1
Step 574000
Ar 4.691639e-01 0.000000e+00 0.000000e+00
1
Step 575000
Ar 4.265204e-01 0.000000e+00 0.000000e+00
1
Step 576000
Ar 4.284107e-01 0.000000e+00 0.000000e+00
1
Step 577000
Ar 4.972676e-01 0.000000e+00 0.000000e+00
1
Step 578000
Ar 5.024581e-01 0.000000e+00 0.000000e+00
1
Step 579000
Ar 4.998855e-01 0.000000e+00 0.000000e+00
1
Step 580000
Ar 5.054435e-01 0.000000e+00 0.000000e+00
1
Step 581000
Ar 4.998232e-01 0.000000e+00 0.000000e+00
1
Step 582000
Ar 4.982748e-01 0.000000e+00 0.000000e+00
1
Step 583000
Ar 5.005476e-01 0.000000e+00 0.000000e+00
1
Step 584000
Ar 5.045103e-01 0.000000e+00 0.000000e+00
1
Step 585000
Ar 5.017776e-01 0.000000e+00 0.000000e+00
1
Step 586000
Ar 5.029065e-01 0.000000e+00 0.000000e+00
1
Step 587000
Ar 4.219086e-01 0.000000e+00 0.000000e+00
1
Step 588000
Ar 4.255811e-01 0.000000e+00 0.000000e+00
1
Step 589000
Ar 3.874697e-01 0.000000e+00 0.000000e+00
1
Step 590000
Ar 4.352443e-01 0.000000e+00 0.000000e+00
1
Step 591000
Ar -3.048535e-01 0.000000e+00 0.000000e+00
1
Step 592000
Ar -3.196746e-01 0.000000e+00 0.000000e+00
1
Step 593000
Ar -3.455544e-01 0.000000e+00 0.000000e+00
1
Step 594000
Ar -3.532968e-01 0.000000e+00 0.000000e+00
1
Step 595000
Ar -3.380167e-01 0.000000e+00 0.000000e+00
1
Step 596000
Ar -3.402074e-01 0.000000e+00 0.000000e+00
1
Step 597000
Ar -3.449131e-01 0.000000e+00 0.000000e+00
1
Step 598000
Ar -3.265821e-01 0.000000e+00 0.000000e+00
1
Step 599000
Ar -3.285245e-01 0.000000e+00 0.000000e+00
1
Step 600000
Ar -3.265056e-01 0.000000e+00 0.000000e+00
1
Step 601000
Ar -3.417251e-01 0.000000e+00 0.000000e+00
1
Step 602000
Ar -3.360025e-01 0.000000e+00 0.000000e+00
1
Step 603000
Ar -3.425408e-01 0.000000e+00 0.000000e+00
1
Step 604000
Ar -3.214597e-01 0.000000e+00 0.000000e+00
1
Step 605000
Ar -3.489759e-01 0.000000e+00 0.000000e+00
1
Step 606000
Ar -3.222883e-01 0.000000e+00 0.000000e+00
1
Step 607000
Ar -3.290415e-01 0.000000e+00 0.000000e+00
1
Step 608000
Ar -3.206868e-01 0.000000e+00 0.000000e+00
1
Step 609000
Ar -4.060522e-01 0.000000e+00 0.000000e+00
1
Step 610000
Ar -4.336874e-01 0.000000e+00 0.000000e+00
1
Step 611000
Ar -4.374964e-01 0.000000e+00 0.000000e+00
1
Step 612000
Ar -4.419341e-01 0.000000e+00 0.000000e+00
1
Step 613000
Ar -4.394658e-01 0.000000e+00 0.000000e+00
1
Step 614000
Ar -4.437091e-01 0.000000e+00 0.000000e+00
1
Step 615000
Ar -4.427861e-01 0.000000e+00 0.000000e+00
1
Step 616000
Ar -6.607095e-01 0.000000e+00 0.000000e+00
1
Step 617000
Ar -6.863188e-01 0.000000e+00 0.000000e+00
1
Step 618000
Ar -6.850406e-01 0.000000e+00 0.000000e+00
1
Step 619000
Ar -6.832299e-01 0.000000e+00 0.000000e+00
1
Step 620000
Ar -6.879993e-01 0.000000e+00 0.000000e+00
1
Step 621000
Ar -6.846451e-01 0.000000e+00 0.000000e+00
1
Step 622000
Ar -6.831329e-01 0.000000e+00 0.000000e+00
1
Step 623000
Ar -6.852411e-01 0.000000e+00 0.000000e+00
1
Step 624000
Ar -6.837518e-01 0.000000e+00 0.000000e+00
1
Step 625000
Ar -6.807534e-01 0.000000e+00 0.000000e+00
1
Step 626000
Ar -6.848473e-01 0.000000e+00 0.000000e+00
1
Step 627000
Ar -6.824542e-01 0.000000e+00 0.000000e+00
1
Step 628000
Ar -6.839637e-01 0.000000e+00 0.000000e+00
1
Step 629000
Ar -6.819992e-01 0.000000e+00 0.000000e+00
1
Step 630000
Ar -6.865251e-01 0.000000e+00 0.000000e+00
1
Step 631000
Ar -6.839007e-01 0.000000e+00 0.000000e+00
1
Step 632000
Ar -6.817210e-01 0.000000e+00 0.000000e+00
1
Step 633000
Ar -6.869231e-01 0.000000e+00 0.000000e+00
1
Step 634000
Ar 1.274648e+00 0.000000e+00 0.000000e+00
1
Step 635000
Ar 1.279449e+00 0.000000e+00 0.000000e+00
1
Step 636000
Ar 1.224468e+00 0.000000e+00 0.000000e+00
1
Step 637000
Ar 1.231087e+00 0.000000e+00 0.000000e+00
1
Step 638000
Ar 1.231615e+00 0.000000e+00 0.000000e+00
1
Step 639000
Ar 1.231123e+00 0.000000e+00 0.000000e+00
1
Step 640000
Ar 1.234996e+00 0.000000e+00 0.000000e+00
1
Step 641000
Ar 1.234142e+00 0.000000e+00 0.000000e+00
1
Step 642000
Ar 1.236480e+00 0.000000e+00 0.000000e+00
1
Step 643000
Ar 1.237638e+00 0.000000e+00 0.000000e+00
1
Step 644000
Ar 1.235209e+00 0.000000e+00 0.000000e+00
1
Step 645000
Ar 1.228166e+00 0.000000e+00 0.000000e+00
1
Step 646000
Ar 1.290039e+00 0.000000e+00 0.000000e+00
1
Step 647000
Ar 7.530667e-01 0.000000e+00 0.000000e+00
1
Step 648000
Ar 7.578207e-01 0.000000e+00 0.000000e+00
1
Step 649000