1
Step 120000
Ar 1.004689e+00 0.000000e+00 0.000000e+00
1
Step 121000
Ar 1.000074e+00 0.000000e+00 0.000000e+00
1
Step 122000
Ar 1.012613e+00 0.000000e+00 0.000000e+00
1
Step 123000
Ar 1.012743e+00 0.000000e+00 0.000000e+00
1
Step 124000
Ar 1.002071e+00 0.000000e+00 0.000000e+00
1
Step 125000
Ar 9.832978e-01 0.000000e+00 0.000000e+00
1
Step 126000
Ar 9.559569e-01 0.000000e+00 0.000000e+00
1
Step 127000
Ar 9.667701e-01 0.000000e+00 0.000000e+00
1
Step 128000
Ar 9.700828e-01 0.000000e+00 0.000000e+00
1
Step 129000
Ar 9.650388e-01 0.000000e+00 0.000000e+00
1
Step 130000
Ar 9.695098e-01 0.000000e+00 0.000000e+00
1
Step 131000
Ar 1.024448e+00 0.000000e+00 0.000000e+00
1
Step 132000
Ar 1.004122e+00 0.000000e+00 0.000000e+00
1
Step 133000
Ar 1.002205e+00 0.000000e+00 0.000000e+00
1
Step 134000
Ar 1.009699e+00 0.000000e+00 0.000000e+00
1
Step 135000
Ar 1.018509e+00 0.000000e+00 0.000000e+00
1
Step 136000
Ar 1.003626e+00 0.000000e+00 0.000000e+00
1
Step 137000
Ar 9.970032e-01 0.000000e+00 0.000000e+00
1
Step 138000
Ar 1.000764e+00 0.000000e+00 0.000000e+00
1
Step 139000
Ar 1.004201e+00 0.000000e+00 0.000000e+00
1
Step 140000
Ar 1.002197e+00 0.000000e+00 0.000000e+00
1
Step 141000
Ar 1.031518e+00 0.000000e+00 0.000000e+00
1
Step 142000
Ar 1.033475e+00 0.000000e+00 0.000000e+00
1
Step 143000
Ar 1.033079e+00 0.000000e+00 0.000000e+00
1
Step 144000
Ar 1.027578e+00 0.000000e+00 0.000000e+00
1
Step 145000
Ar 1.040014e+00 0.000000e+00 0.000000e+00
1
Step 146000
Ar 9.539833e-01 0.000000e+00 0.000000e+00
1
Step 147000
Ar 9.529576e-01 0.000000e+00 0.000000e+00
1
Step 148000
Ar 9.575125e-01 0.000000e+00 0.000000e+00
1
Step 149000
Ar 9.613636e-01 0.000000e+00 0.000000e+00
1
Step 150000
Ar 9.573797e-01 0.000000e+00 0.000000e+00
1
Step 151000
Ar 1.053905e+00 0.000000e+00 0.000000e+00
1
Step 152000
Ar 1.050351e+00 0.000000e+00 0.000000e+00
1
Step 153000
Ar 1.056275e+00 0.000000e+00 0.000000e+00
1
Step 154000
Ar 1.050896e+00 0.000000e+00 0.000000e+00
1
Step 155000
Ar 1.050060e+00 0.000000e+00 0.000000e+00
1
Step 156000
Ar 1.063232e+00 0.000000e+00 0.000000e+00
1
Step 157000
Ar 1.063985e+00 0.000000e+00 0.000000e+00
1
Step 158000
Ar 1.058362e+00 0.000000e+00 0.000000e+00
1
Step 159000
Ar 1.063458e+00 0.000000e+00 0.000000e+00
1
Step 160000
Ar 1.061724e+00 0.000000e+00 0.000000e+00
1
Step 161000
Ar 9.892964e-01 0.000000e+00 0.000000e+00
1
Step 162000
Ar 9.449710e-01 0.000000e+00 0.000000e+00
1
Step 163000
Ar 9.454685e-01 0.000000e+00 0.000000e+00
1
Step 164000
Ar 9.492893e-01 0.000000e+00 0.000000e+00
1
Step 165000
Ar 9.417263e-01 0.000000e+00 0.000000e+00
1
Step 166000
Ar 1.004857e+00 0.000000e+00 0.000000e+00
1
Step 167000
Ar 9.929332e-01 0.000000e+00 0.000000e+00
1
Step 168000
Ar 9.950012e-01 0.000000e+00 0.000000e+00
1
Step 169000
Ar 9.939794e-01 0.000000e+00 0.000000e+00
1
Step 170000
Ar 9.880323e-01 0.000000e+00 0.000000e+00
1
Step 171000
Ar 1.026502e+00 0.000000e+00 0.000000e+00
1
Step 172000
Ar 1.028069e+00 0.000000e+00 0.000000e+00
1
Step 173000
Ar 1.027179e+00 0.000000e+00 0.000000e+00
1
Step 174000
Ar 9.976351e-01 0.000000e+00 0.000000e+00
1
Step 175000
Ar 1.027934e+00 0.000000e+00 0.000000e+00
1
Step 176000
Ar 9.333541e-01 0.000000e+00 0.000000e+00
1
Step 177000
Ar 9.331802e-01 0.000000e+00 0.000000e+00
1
Step 178000
Ar 9.310171e-01 0.000000e+00 0.000000e+00
1
Step 179000
Ar 9.247105e-01 0.000000e+00 0.000000e+00
1
Step 180000
Ar 9.298550e-01 0.000000e+00 0.000000e+00
1
Step 181000
Ar 1.000053e+00 0.000000e+00 0.000000e+00
1
Step 182000
Ar 1.093551e+00 0.000000e+00 0.000000e+00
1
Step 183000
Ar 1.073393e+00 0.000000e+00 0.000000e+00
1
Step 184000
Ar 1.036928e+00 0.000000e+00 0.000000e+00
1
Step 185000
Ar 8.161921e-01 0.000000e+00 0.000000e+00
1
Step 186000
Ar 1.073863e+00 0.000000e+00 0.000000e+00
1
Step 187000
Ar 1.075166e+00 0.000000e+00 0.000000e+00
1
Step 188000
Ar 1.073709e+00 0.000000e+00 0.000000e+00
1
Step 189000
Ar 1.071263e+00 0.000000e+00 0.000000e+00
1
Step 190000
Ar 1.077904e+00 0.000000e+00 0.000000e+00
1
Step 191000
Ar 1.057935e+00 0.000000e+00 0.000000e+00
1
Step 192000
Ar 9.984759e-01 0.000000e+00 0.000000e+00
1
Step 193000
Ar 1.089125e+00 0.000000e+00 0.000000e+00
1
Step 194000
Ar 1.080795e+00 0.000000e+00 0.000000e+00
1
Step 195000
Ar 9.927980e-01 0.000000e+00 0.000000e+00
1
Step 196000
Ar 9.610797e-01 0.000000e+00 0.000000e+00
1
Step 197000
Ar 9.539165e-01 0.000000e+00 0.000000e+00
1
Step 198000
Ar 9.185602e-01 0.000000e+00 0.000000e+00
1
Step 199000
Ar 9.146329e-01 0.000000e+00 0.000000e+00
1
Step 200000
Ar 9.209268e-01 0.000000e+00 0.000000e+00
1
Step 201000
Ar 8.580550e-01 0.000000e+00 0.000000e+00
1
Step 202000
Ar 9.513603e-01 0.000000e+00 0.000000e+00
1
Step 203000
Ar 1.066872e+00 0.000000e+00 0.000000e+00
1
Step 204000
Ar 1.033734e+00 0.000000e+00 0.000000e+00
1
Step 205000
Ar 9.978050e-01 0.000000e+00 0.000000e+00
1
Step 206000
Ar 9.132668e-01 0.000000e+00 0.000000e+00
1
Step 207000
Ar 9.118868e-01 0.000000e+00 0.000000e+00
1
Step 208000
Ar 9.108258e-01 0.000000e+00 0.000000e+00
1
Step 209000
Ar 9.134036e-01 0.000000e+00 0.000000e+00
1
Step 210000
Ar 9.167836e-01 0.000000e+00 0.000000e+00
1
Step 211000
Ar 9.041262e-01 0.000000e+00 0.000000e+00
1
Step 212000
Ar 9.065603e-01 0.000000e+00 0.000000e+00
1
Step 213000
Ar 9.029798e-01 0.000000e+00 0.000000e+00
1
Step 214000
Ar 8.989235e-01 0.000000e+00 0.000000e+00
1
Step 215000
Ar 9.056379e-01 0.000000e+00 0.000000e+00
1
Step 216000
Ar 8.959297e-01 0.000000e+00 0.000000e+00
1
Step 217000
Ar 8.994048e-01 0.000000e+00 0.000000e+00
1
Step 218000
Ar 8.978482e-01 0.000000e+00 0.000000e+00
1
Step 219000
Ar 8.975491e-01 0.000000e+00 0.000000e+00
1
Step 220000
Ar 8.930726e-01 0.000000e+00 0.000000e+00
1
Step 221000
Ar 1.162219e+00 0.000000e+00 0.000000e+00
1
Step 222000
Ar 8.681164e-01 0.000000e+00 0.000000e+00
1
Step 223000
Ar 9.540588e-01 0.000000e+00 0.000000e+00
1
Step 224000
Ar 1.014899e+00 0.000000e+00 0.000000e+00
1
Step 225000
Ar 9.384224e-01 0.000000e+00 0.000000e+00
1
Step 226000
Ar 9.305793e-01 0.000000e+00 0.000000e+00
1
Step 227000
Ar 9.575861e-01 0.000000e+00 0.000000e+00
1
Step 228000
Ar 1.096861e+00 0.000000e+00 0.000000e+00
1
Step 229000
Ar 1.087285e+00 0.000000e+00 0.000000e+00
1
Step 230000
Ar 1.086044e+00 0.000000e+00 0.000000e+00
1
Step 231000
Ar 1.093688e+00 0.000000e+00 0.000000e+00
1
Step 232000
Ar 1.096556e+00 0.000000e+00 0.000000e+00
1
Step 233000
Ar 1.095195e+00 0.000000e+00 0.000000e+00
1
Step 234000
Ar 1.096550e+00 0.000000e+00 0.000000e+00
1
Step 235000
Ar 1.099902e+00 0.000000e+00 0.000000e+00
1
Step 236000
Ar 1.014705e+00 0.000000e+00 0.000000e+00
1
Step 237000
Ar 1.059018e+00 0.000000e+00 0.000000e+00
1
Step 238000
Ar 1.031697e+00 0.000000e+00 0.000000e+00
1
Step 239000
Ar 9.064862e-01 0.000000e+00 0.000000e+00
1
Step 240000
Ar 1.023871e+00 0.000000e+00 0.000000e+00
1
Step 241000
Ar 7.507317e-01 0.000000e+00 0.000000e+00
1
Step 242000
Ar 1.076572e+00 0.000000e+00 0.000000e+00
1
Step 243000
Ar 6.608795e-01 0.000000e+00 0.000000e+00
1
Step 244000
Ar 9.815581e-01 0.000000e+00 0.000000e+00
1
Step 245000
Ar 6.704426e-01 0.000000e+00 0.000000e+00
1
Step 246000
Ar 1.036468e+00 0.000000e+00 0.000000e+00
1
Step 247000
Ar 1.050204e+00 0.000000e+00 0.000000e+00
1
Step 248000
Ar 8.535349e-01 0.000000e+00 0.000000e+00
1
Step 249000
Ar 8.508359e-01 0.000000e+00 0.000000e+00
1
Step 250000
Ar 1.037963e+00 0.000000e+00 0.000000e+00
1
Step 251000
Ar 1.055642e+00 0.000000e+00 0.000000e+00
1
Step 252000
Ar 1.049690e+00 0.000000e+00 0.000000e+00
1
Step 253000
Ar 1.045908e+00 0.000000e+00 0.000000e+00
1
Step 254000
Ar 1.159380e+00 0.000000e+00 0.000000e+00
1
Step 255000
Ar 1.096440e+00 0.000000e+00 0.000000e+00
1
Step 256000
Ar 9.543578e-01 0.000000e+00 0.000000e+00
1
Step 257000
Ar 8.289108e-01 0.000000e+00 0.000000e+00
1
Step 258000
Ar 6.752934e-01 0.000000e+00 0.000000e+00
1
Step 259000
Ar 7.862676e-01 0.000000e+00 0.000000e+00
1
Step 260000
Ar 8.886147e-01 0.000000e+00 0.000000e+00
1
Step 261000
Ar 1.109747e+00 0.000000e+00 0.000000e+00
1
Step 262000
Ar 9.941919e-01 0.000000e+00 0.000000e+00
1
Step 263000
Ar 7.135771e-01 0.000000e+00 0.000000e+00
1
Step 264000
Ar 1.054160e+00 0.000000e+00 0.000000e+00
1
Step 265000
Ar 9.497202e-01 0.000000e+00 0.000000e+00
1
Step 266000
Ar 9.817280e-01 0.000000e+00 0.000000e+00
1
Step 267000
Ar 6.241869e-01 0.000000e+00 0.000000e+00
1
Step 268000
Ar 1.098196e+00 0.000000e+00 0.000000e+00
1
Step 269000
Ar 8.413788e-01 0.000000e+00 0.000000e+00
1
Step 270000
Ar 1.206983e+00 0.000000e+00 0.000000e+00
1
Step 271000
Ar 1.019716e+00 0.000000e+00 0.000000e+00
1
Step 272000
Ar 1.055222e+00 0.000000e+00 0.000000e+00
1
Step 273000
Ar 1.048940e+00 0.000000e+00 0.000000e+00
1
Step 274000
Ar 1.055650e+00 0.000000e+00 0.000000e+00
1
Step 275000
Ar 9.059317e-01 0.000000e+00 0.000000e+00
1
Step 276000
Ar 1.058535e+00 0.000000e+00 0.000000e+00
1
Step 277000
Ar 8.945205e-01 0.000000e+00 0.000000e+00
1
Step 278000
Ar 9.648344e-01 0.000000e+00 0.000000e+00
1
Step 279000
Ar 9.241987e-01 0.000000e+00 0.000000e+00
1
Step 280000
Ar 1.106087e+00 0.000000e+00 0.000000e+00
1
Step 281000
Ar 1.116629e+00 0.000000e+00 0.000000e+00
1
Step 282000
Ar 1.112163e+00 0.000000e+00 0.000000e+00
1
Step 283000
Ar 8.821206e-01 0.000000e+00 0.000000e+00
1
Step 284000
Ar 8.784619e-01 0.000000e+00 0.000000e+00
1
Step 285000
Ar 8.749521e-01 0.000000e+00 0.000000e+00
1
Step 286000
Ar 8.653192e-01 0.000000e+00 0.000000e+00
1
Step 287000
Ar 8.607688e-01 0.000000e+00 0.000000e+00
1
Step 288000
Ar 9.950884e-01 0.000000e+00 0.000000e+00
1
Step 289000
Ar 9.280098e-01 0.000000e+00 0.000000e+00
1
Step 290000
Ar 9.258698e-01 0.000000e+00 0.000000e+00
1
Step 291000
Ar 1.067635e+00 0.000000e+00 0.000000e+00
1
Step 292000
Ar 1.093965e+00 0.000000e+00 0.000000e+00
1
Step 293000
Ar 1.112526e+00 0.000000e+00 0.000000e+00
1
Step 294000
Ar 1.108665e+00 0.000000e+00 0.000000e+00
1
Step 295000
Ar 1.117224e+00 0.000000e+00 0.000000e+00
1
Step 296000
Ar 1.052967e+00 0.000000e+00 0.000000e+00
1
Step 297000
Ar 1.050816e+00 0.000000e+00 0.000000e+00
1
Step 298000
Ar 9.761816e-01 0.000000e+00 0.000000e+00
1
Step 299000
Ar 1.056501e+00 0.000000e+00 0.000000e+00
1
Step 300000
Ar 1.061964e+00 0.000000e+00 0.000000e+00
1
Step 301000
Ar 1.006100e+00 0.000000e+00 0.000000e+00
1
Step 302000
Ar 6.062589e-01 0.000000e+00 0.000000e+00
1
Step 303000
Ar 1.126728e+00 0.000000e+00 0.000000e+00
1
Step 304000
Ar 9.725601e-01 0.000000e+00 0.000000e+00
1
Step 305000
Ar 8.437480e-01 0.000000e+00 0.000000e+00
1
Step 306000
Ar 1.046624e+00 0.000000e+00 0.000000e+00
1
Step 307000
Ar 1.049116e+00 0.000000e+00 0.000000e+00
1
Step 308000
Ar 1.049493e+00 0.000000e+00 0.000000e+00
1
Step 309000
Ar 1.052188e+00 0.000000e+00 0.000000e+00
1
Step 310000
Ar 1.050170e+00 0.000000e+00 0.000000e+00
1
Step 311000
Ar 1.091968e+00 0.000000e+00 0.000000e+00
1
Step 312000
Ar 8.608218e-01 0.000000e+00 0.000000e+00
1
Step 313000
Ar 8.688129e-01 0.000000e+00 0.000000e+00
1
Step 314000
Ar 1.038030e+00 0.000000e+00 0.000000e+00
1
Step 315000
Ar 8.547387e-01 0.000000e+00 0.000000e+00
1
Step 316000
Ar 8.382373e-01 0.000000e+00 0.000000e+00
1
Step 317000
Ar 8.363322e-01 0.000000e+00 0.000000e+00
1
Step 318000
Ar 1.092992e+00 0.000000e+00 0.000000e+00
1
Step 319000
Ar 9.842075e-01 0.000000e+00 0.000000e+00
1
Step 320000
Ar 9.291278e-01 0.000000e+00 0.000000e+00
1
Step 321000
Ar 1.095955e+00 0.000000e+00 0.000000e+00
1
Step 322000
Ar 1.112258e+00 0.000000e+00 0.000000e+00
1
Step 323000
Ar 8.843988e-01 0.000000e+00 0.000000e+00
1
Step 324000
Ar 8.887769e-01 0.000000e+00 0.000000e+00
1
Step 325000
Ar 1.140877e+00 0.000000e+00 0.000000e+00
1
Step 326000
Ar 1.067707e+00 0.000000e+00 0.000000e+00
1
Step 327000
Ar 9.611806e-01 0.000000e+00 0.000000e+00
1
Step 328000
Ar 8.889955e-01 0.000000e+00 0.000000e+00
1
Step 329000
Ar 8.666952e-01 0.000000e+00 0.000000e+00
1
Step 330000
Ar 1.118343e+00 0.000000e+00 0.000000e+00
1
Step 331000
Ar 8.864735e-01 0.000000e+00 0.000000e+00
1
Step 332000
Ar 1.014356e+00 0.000000e+00 0.000000e+00
1
Step 333000
Ar 1.182074e+00 0.000000e+00 0.000000e+00
1
Step 334000
Ar 1.172689e+00 0.000000e+00 0.000000e+00
1
Step 335000
Ar 1.162241e+00 0.000000e+00 0.000000e+00
1
Step 336000
Ar 8.037242e-01 0.000000e+00 0.000000e+00
1
Step 337000
Ar 8.933337e-01 0.000000e+00 0.000000e+00
1
Step 338000
Ar 1.009374e+00 0.000000e+00 0.000000e+00
1
Step 339000
Ar 1.015540e+00 0.000000e+00 0.000000e+00
1
Step 340000
Ar 6.974364e-01 0.000000e+00 0.000000e+00
1
Step 341000
Ar 9.964655e-01 0.000000e+00 0.000000e+00
1
Step 342000
Ar 1.273669e+00 0.000000e+00 0.000000e+00
1
Step 343000
Ar 1.202740e+00 0.000000e+00 0.000000e+00
1
Step 344000
Ar 1.022834e+00 0.000000e+00 0.000000e+00
1
Step 345000
Ar 8.855819e-01 0.000000e+00 0.000000e+00
1
Step 346000
Ar 1.054361e+00 0.000000e+00 0.000000e+00
1
Step 347000
Ar 8.401647e-01 0.000000e+00 0.000000e+00
1
Step 348000
Ar 1.115620e+00 0.000000e+00 0.000000e+00
1
Step 349000
Ar 8.008286e-01 0.000000e+00 0.000000e+00
1
Step 350000
Ar 9.113881e-01 0.000000e+00 0.000000e+00
1
Step 351000
Ar 9.767777e-01 0.000000e+00 0.000000e+00
1
Step 352000
Ar 1.096853e+00 0.000000e+00 0.000000e+00
1
Step 353000
Ar 1.239605e+00 0.000000e+00 0.000000e+00
1
Step 354000
Ar -1.011754e+00 0.000000e+00 0.000000e+00
1
Step 355000
Ar -9.998481e-01 0.000000e+00 0.000000e+00
1
Step 356000
Ar -1.012854e+00 0.000000e+00 0.000000e+00
1
Step 357000
Ar -1.025318e+00 0.000000e+00 0.000000e+00
1
Step 358000
Ar -1.016932e+00 0.000000e+00 0.000000e+00
1
Step 359000
Ar -1.015623e+00 0.000000e+00 0.000000e+00
1
Step 360000
Ar -1.013562e+00 0.000000e+00 0.000000e+00
1
Step 361000
Ar -9.821093e-01 0.000000e+00 0.000000e+00
1
Step 362000
Ar -9.834042e-01 0.000000e+00 0.000000e+00
1
Step 363000
Ar -9.701367e-01 0.000000e+00 0.000000e+00
1
Step 364000
Ar -9.796341e-01 0.000000e+00 0.000000e+00
1
Step 365000
Ar -9.849721e-01 0.000000e+00 0.000000e+00
1
Step 366000
Ar -9.700510e-01 0.000000e+00 0.000000e+00
1
Step 367000
Ar -9.666291e-01 0.000000e+00 0.000000e+00
1
Step 368000
Ar -9.713322e-01 0.000000e+00 0.000000e+00
1
Step 369000
Ar -9.721271e-01 0.000000e+00 0.000000e+00
1
Step 370000
Ar -9.614502e-01 0.000000e+00 0.000000e+00
1
Step 371000
Ar -1.032049e+00 0.000000e+00 0.000000e+00
1
Step 372000
Ar -1.031512e+00 0.000000e+00 0.000000e+00
1
Step 373000
Ar -1.028615e+00 0.000000e+00 0.000000e+00
1
Step 374000
Ar -1.025714e+00 0.000000e+00 0.000000e+00
1
Step 375000
Ar -1.026156e+00 0.000000e+00 0.000000e+00
1
Step 376000
Ar -1.040899e+00 0.000000e+00 0.000000e+00
1
Step 377000
Ar -1.038933e+00 0.000000e+00 0.000000e+00
1
Step 378000
Ar -1.034054e+00 0.000000e+00 0.000000e+00
1
Step 379000
Ar -1.051101e+00 0.000000e+00 0.000000e+00
1
Step 380000
Ar -1.044466e+00 0.000000e+00 0.000000e+00
1
Step 381000
Ar -9.743036e-01 0.000000e+00 0.000000e+00
1
Step 382000
Ar -9.728980e-01 0.000000e+00 0.000000e+00
1
Step 383000
Ar -9.741327e-01 0.000000e+00 0.000000e+00
1
Step 384000
Ar -9.726087e-01 0.000000e+00 0.000000e+00
1
Step 385000
Ar -9.733824e-01 0.000000e+00 0.000000e+00
1
Step 386000
Ar -1.061607e+00 0.000000e+00 0.000000e+00
1
Step 387000
Ar -1.055569e+00 0.000000e+00 0.000000e+00
1
Step 388000
Ar -1.055060e+00 0.000000e+00 0.000000e+00
1
Step 389000
Ar -1.056365e+00 0.000000e+00 0.000000e+00
1
Step 390000
Ar -1.057904e+00 0.000000e+00 0.000000e+00
1
Step 391000
Ar -9.472448e-01 0.000000e+00 0.000000e+00
1
Step 392000
Ar -9.446208e-01 0.000000e+00 0.000000e+00
1
Step 393000
Ar -9.487612e-01 0.000000e+00 0.000000e+00
1
Step 394000
Ar -9.492246e-01 0.000000e+00 0.000000e+00
1
Step 395000
Ar -9.455572e-01 0.000000e+00 0.000000e+00
1
Step 396000
Ar -1.003957e+00 0.000000e+00 0.000000e+00
1
Step 397000
Ar -9.861189e-01 0.000000e+00 0.000000e+00
1
Step 398000
Ar -1.003868e+00 0.000000e+00 0.000000e+00
1
Step 399000
Ar -1.160039e+00 0.000000e+00 0.000000e+00
1
Step 400000
Ar -9.672591e-01 0.000000e+00 0.000000e+00
1
Step 401000
Ar -1.014641e+00 0.000000e+00 0.000000e+00
1
Step 402000
Ar -9.325585e-01 0.000000e+00 0.000000e+00
1
Step 403000
Ar -9.315660e-01 0.000000e+00 0.000000e+00
1
Step 404000
Ar -9.334411e-01 0.000000e+00 0.000000e+00
1
Step 405000
Ar -9.256330e-01 0.000000e+00 0.000000e+00
1
Step 406000
Ar -9.105876e-01 0.000000e+00 0.000000e+00
1
Step 407000
Ar -9.133597e-01 0.000000e+00 0.000000e+00
1
Step 408000
Ar -9.149564e-01 0.000000e+00 0.000000e+00
1
Step 409000
Ar -9.121725e-01 0.000000e+00 0.000000e+00
1
Step 410000
Ar -9.080545e-01 0.000000e+00 0.000000e+00
1
Step 411000
Ar -8.991929e-01 0.000000e+00 0.000000e+00
1
Step 412000
Ar -9.003868e-01 0.000000e+00 0.000000e+00
1
Step 413000
Ar -8.941136e-01 0.000000e+00 0.000000e+00
1
Step 414000
Ar -8.939589e-01 0.000000e+00 0.000000e+00
1
Step 415000
Ar -8.933026e-01 0.000000e+00 0.000000e+00
1
Step 416000
Ar -1.071235e+00 0.000000e+00 0.000000e+00
1
Step 417000
Ar -1.068096e+00 0.000000e+00 0.000000e+00
1
Step 418000
Ar -1.067683e+00 0.000000e+00 0.000000e+00
1
Step 419000
Ar -1.064531e+00 0.000000e+00 0.000000e+00
1
Step 420000
Ar -1.072007e+00 0.000000e+00 0.000000e+00
1
Step 421000
Ar -1.044665e+00 0.000000e+00 0.000000e+00
1
Step 422000
Ar -9.439428e-01 0.000000e+00 0.000000e+00
1
Step 423000
Ar -9.878400e-01 0.000000e+00 0.000000e+00
1
Step 424000
Ar -1.055396e+00 0.000000e+00 0.000000e+00
1
Step 425000
Ar -1.060447e+00 0.000000e+00 0.000000e+00
1
Step 426000
Ar -1.079130e+00 0.000000e+00 0.000000e+00
1
Step 427000
Ar -1.080678e+00 0.000000e+00 0.000000e+00
1
Step 428000
Ar -1.082442e+00 0.000000e+00 0.000000e+00
1
Step 429000
Ar -1.086241e+00 0.000000e+00 0.000000e+00
1
Step 430000
Ar -1.081061e+00 0.000000e+00 0.000000e+00
1
Step 431000
Ar -1.010174e+00 0.000000e+00 0.000000e+00
1
Step 432000
Ar -1.004969e+00 0.000000e+00 0.000000e+00
1
Step 433000
Ar -1.004976e+00 0.000000e+00 0.000000e+00
1
Step 434000
Ar -9.919826e-01 0.000000e+00 0.000000e+00
1
Step 435000
Ar -9.245329e-01 0.000000e+00 0.000000e+00
1
Step 436000
Ar -1.019529e+00 0.000000e+00 0.000000e+00
1
Step 437000
Ar -1.004497e+00 0.000000e+00 0.000000e+00
1
Step 438000
Ar -1.034915e+00 0.000000e+00 0.000000e+00
1
Step 439000
Ar -9.836810e-01 0.000000e+00 0.000000e+00
1
Step 440000
Ar -9.910771e-01 0.000000e+00 0.000000e+00
1
Step 441000
Ar -1.105853e+00 0.000000e+00 0.000000e+00
1
Step 442000
Ar -1.017501e+00 0.000000e+00 0.000000e+00
1
Step 443000
Ar -9.842745e-01 0.000000e+00 0.000000e+00
1
Step 444000
Ar -1.034061e+00 0.000000e+00 0.000000e+00
1
Step 445000
Ar -1.046477e+00 0.000000e+00 0.000000e+00
1
Step 446000
Ar -9.827251e-01 0.000000e+00 0.000000e+00
1
Step 447000
Ar -1.057521e+00 0.000000e+00 0.000000e+00
1
Step 448000
Ar -1.028173e+00 0.000000e+00 0.000000e+00
1
Step 449000
Ar -9.365295e-01 0.000000e+00 0.000000e+00
1
Step 450000
Ar -8.832030e-01 0.000000e+00 0.000000e+00
1
Step 451000
Ar -1.032122e+00 0.000000e+00 0.000000e+00
1
Step 452000
Ar -9.153871e-01 0.000000e+00 0.000000e+00
1
Step 453000
Ar -1.167450e+00 0.000000e+00 0.000000e+00
1
Step 454000
Ar -9.270130e-01 0.000000e+00 0.000000e+00
1
Step 455000
Ar -9.392463e-01 0.000000e+00 0.000000e+00
1
Step 456000
Ar -8.757565e-01 0.000000e+00 0.000000e+00
1
Step 457000
Ar -9.940146e-01 0.000000e+00 0.000000e+00
1
Step 458000
Ar -1.000671e+00 0.000000e+00 0.000000e+00
1
Step 459000
Ar -8.608656e-01 0.000000e+00 0.000000e+00
1
Step 460000
Ar -1.174794e+00 0.000000e+00 0.000000e+00
1
Step 461000
Ar -8.727136e-01 0.000000e+00 0.000000e+00
1
Step 462000
Ar -8.745716e-01 0.000000e+00 0.000000e+00
1
Step 463000
Ar -8.734948e-01 0.000000e+00 0.000000e+00
1
Step 464000
Ar -8.714531e-01 0.000000e+00 0.000000e+00
1
Step 465000
Ar -8.741208e-01 0.000000e+00 0.000000e+00
1
Step 466000
Ar -1.067470e+00 0.000000e+00 0.000000e+00
1
Step 467000
Ar -1.106246e+00 0.000000e+00 0.000000e+00
1
Step 468000
Ar -1.149936e+00 0.000000e+00 0.000000e+00
1
Step 469000
Ar -1.023036e+00 0.000000e+00 0.000000e+00
1
Step 470000
Ar -8.637546e-01 0.000000e+00 0.000000e+00
1
Step 471000
Ar -8.839851e-01 0.000000e+00 0.000000e+00
1
Step 472000
Ar -1.156278e+00 0.000000e+00 0.000000e+00
1
Step 473000
Ar -1.088632e+00 0.000000e+00 0.000000e+00
1
Step 474000
Ar -1.091480e+00 0.000000e+00 0.000000e+00
1
Step 475000
Ar -9.340188e-01 0.000000e+00 0.000000e+00
1
Step 476000
Ar -8.549939e-01 0.000000e+00 0.000000e+00
1
Step 477000
Ar -8.512437e-01 0.000000e+00 0.000000e+00
1
Step 478000
Ar -8.530188e-01 0.000000e+00 0.000000e+00
1
Step 479000
Ar -8.541523e-01 0.000000e+00 0.000000e+00
1
Step 480000
Ar -8.504806e-01 0.000000e+00 0.000000e+00
1
Step 481000
Ar -1.005013e+00 0.000000e+00 0.000000e+00
1
Step 482000
Ar -1.030276e+00 0.000000e+00 0.000000e+00
1
Step 483000
Ar -1.011027e+00 0.000000e+00 0.000000e+00
1
Step 484000
Ar -9.761498e-01 0.000000e+00 0.000000e+00
1
Step 485000
Ar -9.407176e-01 0.000000e+00 0.000000e+00
1
Step 486000
Ar -8.380433e-01 0.000000e+00 0.000000e+00
1
Step 487000
Ar -9.995567e-01 0.000000e+00 0.000000e+00
1
Step 488000
Ar -1.016212e+00 0.000000e+00 0.000000e+00
1
Step 489000
Ar -1.008233e+00 0.000000e+00 0.000000e+00
1
Step 490000
Ar -1.008535e+00 0.000000e+00 0.000000e+00
1
Step 491000
Ar -1.099437e+00 0.000000e+00 0.000000e+00
1
Step 492000
Ar -1.094448e+00 0.000000e+00 0.000000e+00
1
Step 493000
Ar -1.094289e+00 0.000000e+00 0.000000e+00
1
Step 494000
Ar -1.088817e+00 0.000000e+00 0.000000e+00
1
Step 495000
Ar -1.087447e+00 0.000000e+00 0.000000e+00
1
Step 496000
Ar -1.098952e+00 0.000000e+00 0.000000e+00
1
Step 497000
Ar -1.095249e+00 0.000000e+00 0.000000e+00
1
Step 498000
Ar -1.097101e+00 0.000000e+00 0.000000e+00
1
Step 499000
Ar -1.098458e+00 0.000000e+00 0.000000e+00
1
Step 500000
Ar -1.099402e+00 0.000000e+00 0.000000e+00
1
Step 501000
Ar -1.029777e+00 0.000000e+00 0.000000e+00
1
Step 502000
Ar -1.099139e+00 0.000000e+00 0.000000e+00
1
Step 503000
Ar -8.722099e-01 0.000000e+00 0.000000e+00
1
Step 504000
Ar -9.492693e-01 0.000000e+00 0.000000e+00
1
Step 505000
Ar -1.002954e+00 0.000000e+00 0.000000e+00
1
Step 506000
Ar -7.490253e-01 0.000000e+00 0.000000e+00
1
Step 507000
Ar -1.213092e+00 0.000000e+00 0.000000e+00
1
Step 508000
Ar -9.133636e-01 0.000000e+00 0.000000e+00
1
Step 509000
Ar -1.042498e+00 0.000000e+00 0.000000e+00
1
Step 510000
Ar -9.797710e-01 0.000000e+00 0.000000e+00
1
Step 511000
Ar -1.107033e+00 0.000000e+00 0.000000e+00
1
Step 512000
Ar -9.923890e-01 0.000000e+00 0.000000e+00
1
Step 513000
Ar -1.111455e+00 0.000000e+00 0.000000e+00
1
Step 514000
Ar -1.033096e+00 0.000000e+00 0.000000e+00
1
Step 515000
Ar -9.278114e-01 0.000000e+00 0.000000e+00
1
Step 516000
Ar -8.382951e-01 0.000000e+00 0.000000e+00
1
Step 517000
Ar -1.117063e+00 0.000000e+00 0.000000e+00
1
Step 518000
Ar -1.195087e+00 0.000000e+00 0.000000e+00
1
Step 519000
Ar -9.161901e-01 0.000000e+00 0.000000e+00
1
Step 520000
Ar -9.706348e-01 0.000000e+00 0.000000e+00
1
Step 521000
Ar -7.573748e-01 0.000000e+00 0.000000e+00
1
Step 522000
Ar -9.940242e-01 0.000000e+00 0.000000e+00
1
Step 523000
Ar -1.050787e+00 0.000000e+00 0.000000e+00
1
Step 524000
Ar -7.654745e-01 0.000000e+00 0.000000e+00
1
Step 525000
Ar -8.396132e-01 0.000000e+00 0.000000e+00
1
Step 526000
Ar -7.142529e-01 0.000000e+00 0.000000e+00
1
Step 527000
Ar -6.442943e-01 0.000000e+00 0.000000e+00
1
Step 528000
Ar -1.046909e+00 0.000000e+00 0.000000e+00
1
Step 529000
Ar -1.123521e+00 0.000000e+00 0.000000e+00
1
Step 530000
Ar -1.008165e+00 0.000000e+00 0.000000e+00
1
Step 531000
Ar -1.116204e+00 0.000000e+00 0.000000e+00
1
Step 532000
Ar -1.075742e+00 0.000000e+00 0.000000e+00
1
Step 533000
Ar -1.230212e+00 0.000000e+00 0.000000e+00
1
Step 534000
Ar -1.087756e+00 0.000000e+00 0.000000e+00
1
Step 535000
Ar -1.058530e+00 0.000000e+00 0.000000e+00
1
Step 536000
Ar -9.416782e-01 0.000000e+00 0.000000e+00
1
Step 537000
Ar -9.584813e-01 0.000000e+00 0.000000e+00
1
Step 538000
Ar -7.775733e-01 0.000000e+00 0.000000e+00
1
Step 539000
Ar -9.397720e-01 0.000000e+00 0.000000e+00
1
Step 540000
Ar -1.085678e+00 0.000000e+00 0.000000e+00
1
Step 541000
Ar -9.935615e-01 0.000000e+00 0.000000e+00
1
Step 542000
Ar -1.190086e+00 0.000000e+00 0.000000e+00
1
Step 543000
Ar -9.458448e-01 0.000000e+00 0.000000e+00
1
Step 544000
Ar -9.928049e-01 0.000000e+00 0.000000e+00
1
Step 545000
Ar -8.009971e-01 0.000000e+00 0.000000e+00
1
Step 546000
Ar -1.022302e+00 0.000000e+00 0.000000e+00
1
Step 547000
Ar -9.956861e-01 0.000000e+00 0.000000e+00
1
Step 548000
Ar -9.930782e-01 0.000000e+00 0.000000e+00
1
Step 549000
Ar -9.933362e-01 0.000000e+00 0.000000e+00
1
Step 550000
Ar -9.906138e-01 0.000000e+00 0.000000e+00
1
Step 551000
Ar -1.107292e+00 0.000000e+00 0.000000e+00
1
Step 552000
Ar -1.106016e+00 0.000000e+00 0.000000e+00
1
Step 553000
Ar -1.096967e+00 0.000000e+00 0.000000e+00
1
Step 554000
Ar -9.394934e-01 0.000000e+00 0.000000e+00
1
Step 555000
Ar -1.106597e+00 0.000000e+00 0.000000e+00
1
Step 556000
Ar -1.151495e+00 0.000000e+00 0.000000e+00
1
Step 557000
Ar -1.103357e+00 0.000000e+00 0.000000e+00
1
Step 558000
Ar -1.038840e+00 0.000000e+00 0.000000e+00
1
Step 559000
Ar -5.834857e-01 0.000000e+00 0.000000e+00
1
Step 560000
Ar -8.038817e-01 0.000000e+00 0.000000e+00
1
Step 561000
Ar -7.474814e-01 0.000000e+00 0.000000e+00
1
Step 562000
Ar -1.264751e+00 0.000000e+00 0.000000e+00
1
Step 563000
Ar -7.997846e-01 0.000000e+00 0.000000e+00
1
Step 564000
Ar -7.076049e-01 0.000000e+00 0.000000e+00
1
Step 565000
Ar -1.154977e+00 0.000000e+00 0.000000e+00
1
Step 566000
Ar -7.982784e-01 0.000000e+00 0.000000e+00
1
Step 567000
Ar -1.217064e+00 0.000000e+00 0.000000e+00
1
Step 568000
Ar -6.069561e-01 0.000000e+00 0.000000e+00
1
Step 569000
Ar -9.399113e-01 0.000000e+00 0.000000e+00
1
Step 570000
Ar -9.369897e-01 0.000000e+00 0.000000e+00
1
Step 571000
Ar 9.745370e-01 0.000000e+00 0.000000e+00
1
Step 572000
Ar 7.844692e-01 0.000000e+00 0.000000e+00
1
Step 573000
Ar 8.884829e-01 0.000000e+00 0.000000e+00
1
Step 574000
Ar 8.689174e-01 0.000000e+00 0.000000e+00
1
Step 575000
Ar 8.644753e-01 0.000000e+00 0.000000e+00
1
Step 576000
Ar 1.127124e+00 0.000000e+00 0.000000e+00
1
Step 577000
Ar 9.891570e-01 0.000000e+00 0.000000e+00
1
Step 578000
Ar 8.127619e-01 0.000000e+00 0.000000e+00
1
Step 579000
Ar 7.997056e-01 0.000000e+00 0.000000e+00
1
Step 580000
Ar 9.151173e-01 0.000000e+00 0.000000e+00
1
Step 581000
Ar 1.071230e+00 0.000000e+00 0.000000e+00
1
Step 582000
Ar 8.101277e-01 0.000000e+00 0.000000e+00
1
Step 583000
Ar 1.147425e+00 0.000000e+00 0.000000e+00
1
Step 584000
Ar 5.500172e-01 0.000000e+00 0.000000e+00
1
Step 585000
Ar 1.019936e+00 0.000000e+00 0.000000e+00
1
Step 586000
Ar 1.174368e+00 0.000000e+00 0.000000e+00
1
Step 587000
Ar 8.316097e-01 0.000000e+00 0.000000e+00
1
Step 588000
Ar 7.464748e-01 0.000000e+00 0.000000e+00
1
Step 589000
Ar 1.004749e+00 0.000000e+00 0.000000e+00
1
Step 590000
Ar 1.087366e+00 0.000000e+00 0.000000e+00
1
Step 591000
Ar 1.206895e+00 0.000000e+00 0.000000e+00
1
Step 592000
Ar 9.901085e-01 0.000000e+00 0.000000e+00
1
Step 593000
Ar 7.928733e-01 0.000000e+00 0.000000e+00
1
Step 594000
Ar 9.923829e-01 0.000000e+00 0.000000e+00
1
Step 595000
Ar 1.134362e+00 0.000000e+00 0.000000e+00
1
Step 596000
Ar 7.448790e-01 0.000000e+00 0.000000e+00
1
Step 597000
Ar 8.268368e-01 0.000000e+00 0.000000e+00
1
Step 598000
Ar 9.750890e-01 0.000000e+00 0.000000e+00
1
Step 599000
Ar 9.280741e-01 0.000000e+00 0.000000e+00
1
Step 600000
Ar 9.889213e-01 0.000000e+00 0.000000e+00
1
Step 601000
Ar 1.006741e+00 0.000000e+00 0.000000e+00
1
Step 602000
Ar 5.719446e-01 0.000000e+00 0.000000e+00
1
Step 603000
Ar 8.357565e-01 0.000000e+00 0.000000e+00
1
Step 604000
Ar 4.753730e-01 0.000000e+00 0.000000e+00
1
Step 605000
Ar 7.496748e-01 0.000000e+00 0.000000e+00
1
Step 606000
Ar 7.618168e-01 0.000000e+00 0.000000e+00
1
Step 607000
Ar 8.715601e-01 0.000000e+00 0.000000e+00
1
Step 608000
Ar 1.163513e+00 0.000000e+00 0.000000e+00
1
Step 609000
Ar 1.025503e+00 0.000000e+00 0.000000e+00
1
Step 610000
Ar 8.902968e-01 0.000000e+00 0.000000e+00
1
Step 611000
Ar 9.760172e-01 0.000000e+00 0.000000e+00
1
Step 612000
Ar 7.589982e-01 0.000000e+00 0.000000e+00
1
Step 613000
Ar 8.681892e-01 0.000000e+00 0.000000e+00
1
Step 614000
Ar -1.228004e+00 0.000000e+00 0.000000e+00
1
Step 615000
Ar -9.603535e-01 0.000000e+00 0.000000e+00
1
Step 616000
Ar -9.804458e-01 0.000000e+00 0.000000e+00
1
Step 617000
Ar -8.910431e-01 0.000000e+00 0.000000e+00
1
Step 618000
Ar -9.400093e-01 0.000000e+00 0.000000e+00
1
Step 619000
Ar -1.046844e+00 0.000000e+00 0.000000e+00
1
Step 620000
Ar -9.091235e-01 0.000000e+00 0.000000e+00
1
Step 621000
Ar -8.310422e-01 0.000000e+00 0.000000e+00
1
Step 622000
Ar -7.843904e-01 0.000000e+00 0.000000e+00
1
Step 623000
Ar -9.266944e-01 0.000000e+00 0.000000e+00
1
Step 624000
Ar -9.738922e-01 0.000000e+00 0.000000e+00
1
Step 625000
Ar -9.438092e-01 0.000000e+00 0.000000e+00
1
Step 626000
Ar -8.764741e-01 0.000000e+00 0.000000e+00
1
Step 627000
Ar -1.273385e+00 0.000000e+00 0.000000e+00
1
Step 628000
Ar -9.114813e-01 0.000000e+00 0.000000e+00
1
Step 629000
Ar -9.491091e-01 0.000000e+00 0.000000e+00
1
Step 630000
Ar -1.315392e+00 0.000000e+00 0.000000e+00
1
Step 631000
Ar -1.037931e+00 0.000000e+00 0.000000e+00
1
Step 632000
Ar -9.272001e-01 0.000000e+00 0.000000e+00
1
Step 633000
Ar -1.153653e+00 0.000000e+00 0.000000e+00
1
Step 634000
Ar -7.050865e-01 0.000000e+00 0.000000e+00
1
Step 635000
Ar -7.943948e-01 0.000000e+00 0.000000e+00
1
Step 636000
Ar -7.877084e-01 0.000000e+00 0.000000e+00
1
Step 637000
Ar -7.867916e-01 0.000000e+00 0.000000e+00
1
Step 638000
Ar -7.863343e-01 0.000000e+00 0.000000e+00
1
Step 639000
Ar -7.863547e-01 0.000000e+00 0.000000e+00
1
Step 640000
Ar -7.881889e-01 0.000000e+00 0.000000e+00
1
Step 641000
Ar -9.657879e-01 0.000000e+00 0.000000e+00
1
Step 642000
Ar -1.284725e+00 0.000000e+00 0.000000e+00
1
Step 643000
Ar -7.396341e-01 0.000000e+00 0.000000e+00
1
Step 644000
Ar -1.117313e+00 0.000000e+00 0.000000e+00
1
Step 645000
Ar -1.112495e+00 0.000000e+00 0.000000e+00
1
Step 646000
Ar -1.121455e+00 0.000000e+00 0.000000e+00
1
Step 647000
Ar -1.121303e+00 0.000000e+00 0.000000e+00
1
Step 648000
Ar -1.117811e+00 0.000000e+00 0.000000e+00
1
Step 649000
Ar -1.123685e+00 0.000000e+00 0.000000e+00
1
Step 650000
Ar -1.122028e+00 0.000000e+00 0.000000e+00
1