1
Step 120000
Ar 9.719847e-01 0.000000e+00 0.000000e+00
1
Step 121000
Ar 1.040909e+00 0.000000e+00 0.000000e+00
1
Step 122000
Ar 7.774267e-01 0.000000e+00 0.000000e+00
1
Step 123000
Ar 1.015968e+00 0.000000e+00 0.000000e+00
1
Step 124000
Ar 8.952666e-01 0.000000e+00 0.000000e+00
1
Step 125000
Ar 1.014303e+00 0.000000e+00 0.000000e+00
1
Step 126000
Ar 1.188831e+00 0.000000e+00 0.000000e+00
1
Step 127000
Ar 1.030318e+00 0.000000e+00 0.000000e+00
1
Step 128000
Ar 1.067680e+00 0.000000e+00 0.000000e+00
1
Step 129000
Ar 1.063133e+00 0.000000e+00 0.000000e+00
1
Step 130000
Ar 1.177704e+00 0.000000e+00 0.000000e+00
1
Step 131000
Ar 1.070014e+00 0.000000e+00 0.000000e+00
1
Step 132000
Ar 1.069329e+00 0.000000e+00 0.000000e+00
1
Step 133000
Ar 1.071975e+00 0.000000e+00 0.000000e+00
1
Step 134000
Ar 1.132991e+00 0.000000e+00 0.000000e+00
1
Step 135000
Ar 1.154985e+00 0.000000e+00 0.000000e+00
1
Step 136000
Ar 1.104050e+00 0.000000e+00 0.000000e+00
1
Step 137000
Ar 1.095960e+00 0.000000e+00 0.000000e+00
1
Step 138000
Ar 1.082893e+00 0.000000e+00 0.000000e+00
1
Step 139000
Ar 1.112772e+00 0.000000e+00 0.000000e+00
1
Step 140000
Ar 1.045399e+00 0.000000e+00 0.000000e+00
1
Step 141000
Ar 1.060156e+00 0.000000e+00 0.000000e+00
1
Step 142000
Ar 1.131540e+00 0.000000e+00 0.000000e+00
1
Step 143000
Ar 1.097385e+00 0.000000e+00 0.000000e+00
1
Step 144000
Ar 1.073899e+00 0.000000e+00 0.000000e+00
1
Step 145000
Ar 1.101697e+00 0.000000e+00 0.000000e+00
1
Step 146000
Ar 1.114585e+00 0.000000e+00 0.000000e+00
1
Step 147000
Ar 1.133095e+00 0.000000e+00 0.000000e+00
1
Step 148000
Ar 1.140193e+00 0.000000e+00 0.000000e+00
1
Step 149000
Ar 1.133597e+00 0.000000e+00 0.000000e+00
1
Step 150000
Ar 1.127675e+00 0.000000e+00 0.000000e+00
1
Step 151000
Ar 1.236065e+00 0.000000e+00 0.000000e+00
1
Step 152000
Ar 1.208813e+00 0.000000e+00 0.000000e+00
1
Step 153000
Ar 1.198732e+00 0.000000e+00 0.000000e+00
1
Step 154000
Ar 1.202539e+00 0.000000e+00 0.000000e+00
1
Step 155000
Ar 1.220028e+00 0.000000e+00 0.000000e+00
1
Step 156000
Ar 1.030456e+00 0.000000e+00 0.000000e+00
1
Step 157000
Ar 1.030662e+00 0.000000e+00 0.000000e+00
1
Step 158000
Ar 1.032110e+00 0.000000e+00 0.000000e+00
1
Step 159000
Ar 1.030384e+00 0.000000e+00 0.000000e+00
1
Step 160000
Ar 1.031854e+00 0.000000e+00 0.000000e+00
1
Step 161000
Ar 9.715764e-01 0.000000e+00 0.000000e+00
1
Step 162000
Ar 9.392074e-01 0.000000e+00 0.000000e+00
1
Step 163000
Ar 9.381039e-01 0.000000e+00 0.000000e+00
1
Step 164000
Ar 9.706151e-01 0.000000e+00 0.000000e+00
1
Step 165000
Ar 8.927743e-01 0.000000e+00 0.000000e+00
1
Step 166000
Ar 9.967974e-01 0.000000e+00 0.000000e+00
1
Step 167000
Ar 9.297186e-01 0.000000e+00 0.000000e+00
1
Step 168000
Ar 9.998951e-01 0.000000e+00 0.000000e+00
1
Step 169000
Ar 9.343311e-01 0.000000e+00 0.000000e+00
1
Step 170000
Ar 9.391984e-01 0.000000e+00 0.000000e+00
1
Step 171000
Ar 9.148713e-01 0.000000e+00 0.000000e+00
1
Step 172000
Ar 9.248953e-01 0.000000e+00 0.000000e+00
1
Step 173000
Ar 9.206839e-01 0.000000e+00 0.000000e+00
1
Step 174000
Ar 9.071884e-01 0.000000e+00 0.000000e+00
1
Step 175000
Ar 9.292553e-01 0.000000e+00 0.000000e+00
1
Step 176000
Ar 9.845479e-01 0.000000e+00 0.000000e+00
1
Step 177000
Ar 9.788465e-01 0.000000e+00 0.000000e+00
1
Step 178000
Ar 9.995141e-01 0.000000e+00 0.000000e+00
1
Step 179000
Ar 9.782670e-01 0.000000e+00 0.000000e+00
1
Step 180000
Ar 9.586185e-01 0.000000e+00 0.000000e+00
1
Step 181000
Ar 9.914078e-01 0.000000e+00 0.000000e+00
1
Step 182000
Ar 9.712855e-01 0.000000e+00 0.000000e+00
1
Step 183000
Ar 9.827968e-01 0.000000e+00 0.000000e+00
1
Step 184000
Ar 9.881925e-01 0.000000e+00 0.000000e+00
1
Step 185000
Ar 9.725460e-01 0.000000e+00 0.000000e+00
1
Step 186000
Ar 9.972667e-01 0.000000e+00 0.000000e+00
1
Step 187000
Ar 9.965409e-01 0.000000e+00 0.000000e+00
1
Step 188000
Ar 9.982387e-01 0.000000e+00 0.000000e+00
1
Step 189000
Ar 9.911112e-01 0.000000e+00 0.000000e+00
1
Step 190000
Ar 9.989758e-01 0.000000e+00 0.000000e+00
1
Step 191000
Ar 1.203475e+00 0.000000e+00 0.000000e+00
1
Step 192000
Ar 1.203272e+00 0.000000e+00 0.000000e+00
1
Step 193000
Ar 1.187415e+00 0.000000e+00 0.000000e+00
1
Step 194000
Ar 1.203976e+00 0.000000e+00 0.000000e+00
1
Step 195000
Ar 1.202984e+00 0.000000e+00 0.000000e+00
1
Step 196000
Ar 1.140795e+00 0.000000e+00 0.000000e+00
1
Step 197000
Ar 1.139629e+00 0.000000e+00 0.000000e+00
1
Step 198000
Ar 1.139367e+00 0.000000e+00 0.000000e+00
1
Step 199000
Ar 1.166694e+00 0.000000e+00 0.000000e+00
1
Step 200000
Ar 1.167027e+00 0.000000e+00 0.000000e+00
1
Step 201000
Ar 1.142896e+00 0.000000e+00 0.000000e+00
1
Step 202000
Ar 1.141855e+00 0.000000e+00 0.000000e+00
1
Step 203000
Ar 1.140184e+00 0.000000e+00 0.000000e+00
1
Step 204000
Ar 1.140382e+00 0.000000e+00 0.000000e+00
1
Step 205000
Ar 1.139753e+00 0.000000e+00 0.000000e+00
1
Step 206000
Ar 1.090595e+00 0.000000e+00 0.000000e+00
1
Step 207000
Ar 1.068868e+00 0.000000e+00 0.000000e+00
1
Step 208000
Ar 1.074381e+00 0.000000e+00 0.000000e+00
1
Step 209000
Ar 1.066660e+00 0.000000e+00 0.000000e+00
1
Step 210000
Ar 1.074168e+00 0.000000e+00 0.000000e+00
1
Step 211000
Ar 1.058877e+00 0.000000e+00 0.000000e+00
1
Step 212000
Ar 1.062410e+00 0.000000e+00 0.000000e+00
1
Step 213000
Ar 1.057701e+00 0.000000e+00 0.000000e+00
1
Step 214000
Ar 1.060367e+00 0.000000e+00 0.000000e+00
1
Step 215000
Ar 1.057626e+00 0.000000e+00 0.000000e+00
1
Step 216000
Ar 9.812047e-01 0.000000e+00 0.000000e+00
1
Step 217000
Ar 9.825987e-01 0.000000e+00 0.000000e+00
1
Step 218000
Ar 9.865453e-01 0.000000e+00 0.000000e+00
1
Step 219000
Ar 9.871510e-01 0.000000e+00 0.000000e+00
1
Step 220000
Ar 9.782589e-01 0.000000e+00 0.000000e+00
1
Step 221000
Ar 1.307766e+00 0.000000e+00 0.000000e+00
1
Step 222000
Ar 1.260618e+00 0.000000e+00 0.000000e+00
1
Step 223000
Ar 1.242670e+00 0.000000e+00 0.000000e+00
1
Step 224000
Ar 1.254322e+00 0.000000e+00 0.000000e+00
1
Step 225000
Ar 1.273025e+00 0.000000e+00 0.000000e+00
1
Step 226000
Ar 1.311084e+00 0.000000e+00 0.000000e+00
1
Step 227000
Ar 1.299077e+00 0.000000e+00 0.000000e+00
1
Step 228000
Ar 1.327644e+00 0.000000e+00 0.000000e+00
1
Step 229000
Ar 1.337889e+00 0.000000e+00 0.000000e+00
1
Step 230000
Ar 1.431707e+00 0.000000e+00 0.000000e+00
1
Step 231000
Ar 1.459794e+00 0.000000e+00 0.000000e+00
1
Step 232000
Ar 1.452945e+00 0.000000e+00 0.000000e+00
1
Step 233000
Ar 1.448028e+00 0.000000e+00 0.000000e+00
1
Step 234000
Ar 1.477617e+00 0.000000e+00 0.000000e+00
1
Step 235000
Ar 1.477201e+00 0.000000e+00 0.000000e+00
1
Step 236000
Ar 1.089698e+00 0.000000e+00 0.000000e+00
1
Step 237000
Ar 1.090264e+00 0.000000e+00 0.000000e+00
1
Step 238000
Ar 1.086500e+00 0.000000e+00 0.000000e+00
1
Step 239000
Ar 1.084001e+00 0.000000e+00 0.000000e+00
1
Step 240000
Ar 1.086951e+00 0.000000e+00 0.000000e+00
1
Step 241000
Ar 9.847674e-01 0.000000e+00 0.000000e+00
1
Step 242000
Ar 9.886672e-01 0.000000e+00 0.000000e+00
1
Step 243000
Ar 1.246444e+00 0.000000e+00 0.000000e+00
1
Step 244000
Ar 1.250494e+00 0.000000e+00 0.000000e+00
1
Step 245000
Ar 1.244060e+00 0.000000e+00 0.000000e+00
1
Step 246000
Ar 1.230552e+00 0.000000e+00 0.000000e+00
1
Step 247000
Ar 1.231843e+00 0.000000e+00 0.000000e+00
1
Step 248000
Ar 1.226966e+00 0.000000e+00 0.000000e+00
1
Step 249000
Ar 1.232221e+00 0.000000e+00 0.000000e+00
1
Step 250000
Ar 1.235940e+00 0.000000e+00 0.000000e+00
1
Step 251000
Ar 9.884088e-01 0.000000e+00 0.000000e+00
1
Step 252000
Ar 9.904298e-01 0.000000e+00 0.000000e+00
1
Step 253000
Ar 9.888879e-01 0.000000e+00 0.000000e+00
1
Step 254000
Ar 9.907193e-01 0.000000e+00 0.000000e+00
1
Step 255000
Ar 9.885307e-01 0.000000e+00 0.000000e+00
1
Step 256000
Ar 1.187599e+00 0.000000e+00 0.000000e+00
1
Step 257000
Ar 1.189018e+00 0.000000e+00 0.000000e+00
1
Step 258000
Ar 1.188147e+00 0.000000e+00 0.000000e+00
1
Step 259000
Ar 1.190028e+00 0.000000e+00 0.000000e+00
1
Step 260000
Ar 1.190699e+00 0.000000e+00 0.000000e+00
1
Step 261000
Ar 1.150284e+00 0.000000e+00 0.000000e+00
1
Step 262000
Ar 1.104506e+00 0.000000e+00 0.000000e+00
1
Step 263000
Ar 1.118215e+00 0.000000e+00 0.000000e+00
1
Step 264000
Ar 1.113462e+00 0.000000e+00 0.000000e+00
1
Step 265000
Ar 1.114021e+00 0.000000e+00 0.000000e+00
1
Step 266000
Ar 1.035446e+00 0.000000e+00 0.000000e+00
1
Step 267000
Ar 7.321201e-01 0.000000e+00 0.000000e+00
1
Step 268000
Ar 8.196989e-01 0.000000e+00 0.000000e+00
1
Step 269000
Ar 8.272943e-01 0.000000e+00 0.000000e+00
1
Step 270000
Ar 7.722109e-01 0.000000e+00 0.000000e+00
1
Step 271000
Ar 8.257533e-01 0.000000e+00 0.000000e+00
1
Step 272000
Ar 8.705553e-01 0.000000e+00 0.000000e+00
1
Step 273000
Ar 8.604557e-01 0.000000e+00 0.000000e+00
1
Step 274000
Ar 8.094968e-01 0.000000e+00 0.000000e+00
1
Step 275000
Ar 7.975430e-01 0.000000e+00 0.000000e+00
1
Step 276000
Ar 8.318560e-01 0.000000e+00 0.000000e+00
1
Step 277000
Ar 8.143273e-01 0.000000e+00 0.000000e+00
1
Step 278000
Ar 8.341309e-01 0.000000e+00 0.000000e+00
1
Step 279000
Ar 8.577698e-01 0.000000e+00 0.000000e+00
1
Step 280000
Ar 8.619639e-01 0.000000e+00 0.000000e+00
1
Step 281000
Ar 7.307847e-01 0.000000e+00 0.000000e+00
1
Step 282000
Ar 7.575195e-01 0.000000e+00 0.000000e+00
1
Step 283000
Ar 7.122990e-01 0.000000e+00 0.000000e+00
1
Step 284000
Ar 7.407159e-01 0.000000e+00 0.000000e+00
1
Step 285000
Ar 5.815531e-01 0.000000e+00 0.000000e+00
1
Step 286000
Ar 4.919205e-01 0.000000e+00 0.000000e+00
1
Step 287000
Ar 3.608836e-01 0.000000e+00 0.000000e+00
1
Step 288000
Ar 3.599616e-01 0.000000e+00 0.000000e+00
1
Step 289000
Ar 5.068896e-01 0.000000e+00 0.000000e+00
1
Step 290000
Ar 4.619922e-01 0.000000e+00 0.000000e+00
1
Step 291000
Ar -1.032940e+00 0.000000e+00 0.000000e+00
1
Step 292000
Ar -1.100224e+00 0.000000e+00 0.000000e+00
1
Step 293000
Ar -9.288400e-01 0.000000e+00 0.000000e+00
1
Step 294000
Ar -7.551056e-01 0.000000e+00 0.000000e+00
1
Step 295000
Ar -1.009440e+00 0.000000e+00 0.000000e+00
1
Step 296000
Ar -1.119165e+00 0.000000e+00 0.000000e+00
1
Step 297000
Ar -1.113855e+00 0.000000e+00 0.000000e+00
1
Step 298000
Ar -1.176471e+00 0.000000e+00 0.000000e+00
1
Step 299000
Ar -1.122881e+00 0.000000e+00 0.000000e+00
1
Step 300000
Ar -1.077695e+00 0.000000e+00 0.000000e+00
1
Step 301000
Ar -1.027417e+00 0.000000e+00 0.000000e+00
1
Step 302000
Ar -1.036011e+00 0.000000e+00 0.000000e+00
1
Step 303000
Ar -1.032764e+00 0.000000e+00 0.000000e+00
1
Step 304000
Ar -1.034528e+00 0.000000e+00 0.000000e+00
1
Step 305000
Ar -1.030049e+00 0.000000e+00 0.000000e+00
1
Step 306000
Ar -1.061428e+00 0.000000e+00 0.000000e+00
1
Step 307000
Ar -1.052023e+00 0.000000e+00 0.000000e+00
1
Step 308000
Ar -1.056064e+00 0.000000e+00 0.000000e+00
1
Step 309000
Ar -1.054200e+00 0.000000e+00 0.000000e+00
1
Step 310000
Ar -1.061608e+00 0.000000e+00 0.000000e+00
1
Step 311000
Ar -1.168628e+00 0.000000e+00 0.000000e+00
1
Step 312000
Ar -1.112064e+00 0.000000e+00 0.000000e+00
1
Step 313000
Ar -1.117320e+00 0.000000e+00 0.000000e+00
1
Step 314000
Ar -1.107921e+00 0.000000e+00 0.000000e+00
1
Step 315000
Ar -1.184396e+00 0.000000e+00 0.000000e+00
1
Step 316000
Ar -1.264110e+00 0.000000e+00 0.000000e+00
1
Step 317000
Ar -1.199369e+00 0.000000e+00 0.000000e+00
1
Step 318000
Ar -1.215317e+00 0.000000e+00 0.000000e+00
1
Step 319000
Ar -1.293975e+00 0.000000e+00 0.000000e+00
1
Step 320000
Ar -1.244958e+00 0.000000e+00 0.000000e+00
1
Step 321000
Ar -1.265700e+00 0.000000e+00 0.000000e+00
1
Step 322000
Ar -1.259872e+00 0.000000e+00 0.000000e+00
1
Step 323000
Ar -1.308338e+00 0.000000e+00 0.000000e+00
1
Step 324000
Ar -1.262649e+00 0.000000e+00 0.000000e+00
1
Step 325000
Ar -1.266301e+00 0.000000e+00 0.000000e+00
1
Step 326000
Ar -1.277713e+00 0.000000e+00 0.000000e+00
1
Step 327000
Ar -1.282838e+00 0.000000e+00 0.000000e+00
1
Step 328000
Ar -1.299895e+00 0.000000e+00 0.000000e+00
1
Step 329000
Ar -1.304893e+00 0.000000e+00 0.000000e+00
1
Step 330000
Ar -1.348156e+00 0.000000e+00 0.000000e+00
1
Step 331000
Ar -1.015500e+00 0.000000e+00 0.000000e+00
1
Step 332000
Ar -1.020479e+00 0.000000e+00 0.000000e+00
1
Step 333000
Ar -1.021243e+00 0.000000e+00 0.000000e+00
1
Step 334000
Ar -1.019747e+00 0.000000e+00 0.000000e+00
1
Step 335000
Ar -1.069660e+00 0.000000e+00 0.000000e+00
1
Step 336000
Ar -1.205259e+00 0.000000e+00 0.000000e+00
1
Step 337000
Ar -1.204076e+00 0.000000e+00 0.000000e+00
1
Step 338000
Ar -1.204571e+00 0.000000e+00 0.000000e+00
1
Step 339000
Ar -1.202273e+00 0.000000e+00 0.000000e+00
1
Step 340000
Ar -1.203570e+00 0.000000e+00 0.000000e+00
1
Step 341000
Ar -1.105747e+00 0.000000e+00 0.000000e+00
1
Step 342000
Ar -1.098829e+00 0.000000e+00 0.000000e+00
1
Step 343000
Ar -1.171664e+00 0.000000e+00 0.000000e+00
1
Step 344000
Ar -1.115898e+00 0.000000e+00 0.000000e+00
1
Step 345000
Ar -1.112144e+00 0.000000e+00 0.000000e+00
1
Step 346000
Ar -1.149625e+00 0.000000e+00 0.000000e+00
1
Step 347000
Ar -1.136093e+00 0.000000e+00 0.000000e+00
1
Step 348000
Ar -1.164118e+00 0.000000e+00 0.000000e+00
1
Step 349000
Ar -1.131454e+00 0.000000e+00 0.000000e+00
1
Step 350000
Ar -1.159808e+00 0.000000e+00 0.000000e+00
1
Step 351000
Ar -1.136734e+00 0.000000e+00 0.000000e+00
1
Step 352000
Ar -1.135582e+00 0.000000e+00 0.000000e+00
1
Step 353000
Ar -1.133865e+00 0.000000e+00 0.000000e+00
1
Step 354000
Ar -1.128076e+00 0.000000e+00 0.000000e+00
1
Step 355000
Ar -1.134171e+00 0.000000e+00 0.000000e+00
1
Step 356000
Ar -1.222668e+00 0.000000e+00 0.000000e+00
1
Step 357000
Ar -1.215577e+00 0.000000e+00 0.000000e+00
1
Step 358000
Ar -1.222237e+00 0.000000e+00 0.000000e+00
1
Step 359000
Ar -1.215747e+00 0.000000e+00 0.000000e+00
1
Step 360000
Ar -1.221538e+00 0.000000e+00 0.000000e+00
1
Step 361000
Ar -1.096048e+00 0.000000e+00 0.000000e+00
1
Step 362000
Ar -1.087390e+00 0.000000e+00 0.000000e+00
1
Step 363000
Ar -1.094674e+00 0.000000e+00 0.000000e+00
1
Step 364000
Ar -1.092024e+00 0.000000e+00 0.000000e+00
1
Step 365000
Ar -1.093031e+00 0.000000e+00 0.000000e+00
1
Step 366000
Ar -1.126722e+00 0.000000e+00 0.000000e+00
1
Step 367000
Ar -1.124295e+00 0.000000e+00 0.000000e+00
1
Step 368000
Ar -1.121201e+00 0.000000e+00 0.000000e+00
1
Step 369000
Ar -1.123686e+00 0.000000e+00 0.000000e+00
1
Step 370000
Ar -1.126793e+00 0.000000e+00 0.000000e+00
1
Step 371000
Ar -9.525558e-01 0.000000e+00 0.000000e+00
1
Step 372000
Ar -9.272745e-01 0.000000e+00 0.000000e+00
1
Step 373000
Ar -9.717593e-01 0.000000e+00 0.000000e+00
1
Step 374000
Ar -9.369294e-01 0.000000e+00 0.000000e+00
1
Step 375000
Ar -9.201087e-01 0.000000e+00 0.000000e+00
1
Step 376000
Ar -9.646699e-01 0.000000e+00 0.000000e+00
1
Step 377000
Ar -9.769452e-01 0.000000e+00 0.000000e+00
1
Step 378000
Ar -9.888777e-01 0.000000e+00 0.000000e+00
1
Step 379000
Ar -9.580858e-01 0.000000e+00 0.000000e+00
1
Step 380000
Ar -9.733400e-01 0.000000e+00 0.000000e+00
1
Step 381000
Ar -1.019287e+00 0.000000e+00 0.000000e+00
1
Step 382000
Ar -1.018175e+00 0.000000e+00 0.000000e+00
1
Step 383000
Ar -1.023107e+00 0.000000e+00 0.000000e+00
1
Step 384000
Ar -1.019958e+00 0.000000e+00 0.000000e+00
1
Step 385000
Ar -1.016282e+00 0.000000e+00 0.000000e+00
1
Step 386000
Ar -1.043741e+00 0.000000e+00 0.000000e+00
1
Step 387000
Ar -1.046620e+00 0.000000e+00 0.000000e+00
1
Step 388000
Ar -1.050885e+00 0.000000e+00 0.000000e+00
1
Step 389000
Ar -1.041823e+00 0.000000e+00 0.000000e+00
1
Step 390000
Ar -1.050361e+00 0.000000e+00 0.000000e+00
1
Step 391000
Ar -1.118833e+00 0.000000e+00 0.000000e+00
1
Step 392000
Ar -1.104787e+00 0.000000e+00 0.000000e+00
1
Step 393000
Ar -1.104964e+00 0.000000e+00 0.000000e+00
1
Step 394000
Ar -1.089099e+00 0.000000e+00 0.000000e+00
1
Step 395000
Ar -1.102211e+00 0.000000e+00 0.000000e+00
1
Step 396000
Ar -6.367513e-01 0.000000e+00 0.000000e+00
1
Step 397000
Ar -8.968063e-01 0.000000e+00 0.000000e+00
1
Step 398000
Ar -7.992307e-01 0.000000e+00 0.000000e+00
1
Step 399000
Ar -8.708968e-01 0.000000e+00 0.000000e+00
1
Step 400000
Ar -8.559250e-01 0.000000e+00 0.000000e+00
1
Step 401000
Ar -8.177817e-01 0.000000e+00 0.000000e+00
1
Step 402000
Ar -7.885825e-01 0.000000e+00 0.000000e+00
1
Step 403000
Ar -7.804117e-01 0.000000e+00 0.000000e+00
1
Step 404000
Ar -8.247333e-01 0.000000e+00 0.000000e+00
1
Step 405000
Ar -7.665191e-01 0.000000e+00 0.000000e+00
1
Step 406000
Ar -8.464760e-01 0.000000e+00 0.000000e+00
1
Step 407000
Ar -8.348493e-01 0.000000e+00 0.000000e+00
1
Step 408000
Ar -8.179156e-01 0.000000e+00 0.000000e+00
1
Step 409000
Ar -8.362845e-01 0.000000e+00 0.000000e+00
1
Step 410000
Ar -7.894538e-01 0.000000e+00 0.000000e+00
1
Step 411000
Ar -7.782599e-01 0.000000e+00 0.000000e+00
1
Step 412000
Ar -7.782902e-01 0.000000e+00 0.000000e+00
1
Step 413000
Ar -7.780400e-01 0.000000e+00 0.000000e+00
1
Step 414000
Ar -7.753109e-01 0.000000e+00 0.000000e+00
1
Step 415000
Ar -7.774664e-01 0.000000e+00 0.000000e+00
1
Step 416000
Ar -8.740708e-01 0.000000e+00 0.000000e+00
1
Step 417000
Ar -8.890854e-01 0.000000e+00 0.000000e+00
1
Step 418000
Ar -9.017561e-01 0.000000e+00 0.000000e+00
1
Step 419000
Ar -8.914080e-01 0.000000e+00 0.000000e+00
1
Step 420000
Ar -8.737886e-01 0.000000e+00 0.000000e+00
1
Step 421000
Ar -8.880496e-01 0.000000e+00 0.000000e+00
1
Step 422000
Ar -8.982425e-01 0.000000e+00 0.000000e+00
1
Step 423000
Ar -9.043547e-01 0.000000e+00 0.000000e+00
1
Step 424000
Ar -8.870573e-01 0.000000e+00 0.000000e+00
1
Step 425000
Ar -8.903758e-01 0.000000e+00 0.000000e+00
1
Step 426000
Ar -9.971998e-01 0.000000e+00 0.000000e+00
1
Step 427000
Ar -9.885346e-01 0.000000e+00 0.000000e+00
1
Step 428000
Ar -9.854578e-01 0.000000e+00 0.000000e+00
1
Step 429000
Ar -9.900716e-01 0.000000e+00 0.000000e+00
1
Step 430000
Ar -9.883564e-01 0.000000e+00 0.000000e+00
1
Step 431000
Ar -8.272968e-01 0.000000e+00 0.000000e+00
1
Step 432000
Ar -8.131658e-01 0.000000e+00 0.000000e+00
1
Step 433000
Ar -8.389159e-01 0.000000e+00 0.000000e+00
1
Step 434000
Ar -8.331144e-01 0.000000e+00 0.000000e+00
1
Step 435000
Ar -8.103925e-01 0.000000e+00 0.000000e+00
1
Step 436000
Ar -9.086486e-01 0.000000e+00 0.000000e+00
1
Step 437000
Ar -9.096454e-01 0.000000e+00 0.000000e+00
1
Step 438000
Ar -9.052175e-01 0.000000e+00 0.000000e+00
1
Step 439000
Ar -9.038852e-01 0.000000e+00 0.000000e+00
1
Step 440000
Ar -9.102556e-01 0.000000e+00 0.000000e+00
1
Step 441000
Ar -7.081248e-01 0.000000e+00 0.000000e+00
1
Step 442000
Ar -5.857968e-01 0.000000e+00 0.000000e+00
1
Step 443000
Ar -6.396291e-01 0.000000e+00 0.000000e+00
1
Step 444000
Ar -7.254388e-01 0.000000e+00 0.000000e+00
1
Step 445000
Ar -7.085392e-01 0.000000e+00 0.000000e+00
1
Step 446000
Ar -7.345134e-01 0.000000e+00 0.000000e+00
1
Step 447000
Ar -7.534018e-01 0.000000e+00 0.000000e+00
1
Step 448000
Ar -7.227936e-01 0.000000e+00 0.000000e+00
1
Step 449000
Ar -7.516598e-01 0.000000e+00 0.000000e+00
1
Step 450000
Ar -7.428019e-01 0.000000e+00 0.000000e+00
1
Step 451000
Ar -7.271133e-01 0.000000e+00 0.000000e+00
1
Step 452000
Ar -7.271891e-01 0.000000e+00 0.000000e+00
1
Step 453000
Ar -7.307775e-01 0.000000e+00 0.000000e+00
1
Step 454000
Ar -7.237289e-01 0.000000e+00 0.000000e+00
1
Step 455000
Ar -7.259603e-01 0.000000e+00 0.000000e+00
1
Step 456000
Ar -8.024819e-01 0.000000e+00 0.000000e+00
1
Step 457000
Ar -7.973126e-01 0.000000e+00 0.000000e+00
1
Step 458000
Ar -8.351626e-01 0.000000e+00 0.000000e+00
1
Step 459000
Ar -8.270362e-01 0.000000e+00 0.000000e+00
1
Step 460000
Ar -8.448309e-01 0.000000e+00 0.000000e+00
1
Step 461000
Ar -7.996959e-01 0.000000e+00 0.000000e+00
1
Step 462000
Ar -8.013114e-01 0.000000e+00 0.000000e+00
1
Step 463000
Ar -8.003909e-01 0.000000e+00 0.000000e+00
1
Step 464000
Ar -7.997343e-01 0.000000e+00 0.000000e+00
1
Step 465000
Ar -7.975220e-01 0.000000e+00 0.000000e+00
1
Step 466000
Ar -8.266173e-01 0.000000e+00 0.000000e+00
1
Step 467000
Ar -8.267724e-01 0.000000e+00 0.000000e+00
1
Step 468000
Ar -8.286819e-01 0.000000e+00 0.000000e+00
1
Step 469000
Ar -8.269779e-01 0.000000e+00 0.000000e+00
1
Step 470000
Ar -8.311699e-01 0.000000e+00 0.000000e+00
1
Step 471000
Ar -8.257438e-01 0.000000e+00 0.000000e+00
1
Step 472000
Ar -8.203172e-01 0.000000e+00 0.000000e+00
1
Step 473000
Ar -8.213810e-01 0.000000e+00 0.000000e+00
1
Step 474000
Ar -8.218827e-01 0.000000e+00 0.000000e+00
1
Step 475000
Ar -9.374441e-01 0.000000e+00 0.000000e+00
1
Step 476000
Ar -8.198394e-01 0.000000e+00 0.000000e+00
1
Step 477000
Ar -8.195999e-01 0.000000e+00 0.000000e+00
1
Step 478000
Ar -8.215055e-01 0.000000e+00 0.000000e+00
1
Step 479000
Ar -8.206158e-01 0.000000e+00 0.000000e+00
1
Step 480000
Ar -8.171848e-01 0.000000e+00 0.000000e+00
1
Step 481000
Ar -6.538937e-01 0.000000e+00 0.000000e+00
1
Step 482000
Ar -6.441764e-01 0.000000e+00 0.000000e+00
1
Step 483000
Ar -6.532011e-01 0.000000e+00 0.000000e+00
1
Step 484000
Ar -6.227569e-01 0.000000e+00 0.000000e+00
1
Step 485000
Ar -5.947539e-01 0.000000e+00 0.000000e+00
1
Step 486000
Ar -4.602622e-01 0.000000e+00 0.000000e+00
1
Step 487000
Ar -4.396656e-01 0.000000e+00 0.000000e+00
1
Step 488000
Ar -5.658785e-01 0.000000e+00 0.000000e+00
1
Step 489000
Ar -5.549289e-01 0.000000e+00 0.000000e+00
1
Step 490000
Ar -5.607625e-01 0.000000e+00 0.000000e+00
1
Step 491000
Ar -6.354111e-01 0.000000e+00 0.000000e+00
1
Step 492000
Ar -6.735908e-01 0.000000e+00 0.000000e+00
1
Step 493000
Ar -6.377902e-01 0.000000e+00 0.000000e+00
1
Step 494000
Ar -6.624734e-01 0.000000e+00 0.000000e+00
1
Step 495000
Ar -6.970170e-01 0.000000e+00 0.000000e+00
1
Step 496000
Ar -6.794459e-01 0.000000e+00 0.000000e+00
1
Step 497000
Ar -6.606220e-01 0.000000e+00 0.000000e+00
1
Step 498000
Ar -6.490227e-01 0.000000e+00 0.000000e+00
1
Step 499000
Ar -6.823926e-01 0.000000e+00 0.000000e+00
1
Step 500000
Ar -6.615276e-01 0.000000e+00 0.000000e+00
1
Step 501000
Ar -6.750449e-01 0.000000e+00 0.000000e+00
1
Step 502000
Ar -6.744663e-01 0.000000e+00 0.000000e+00
1
Step 503000
Ar -6.787057e-01 0.000000e+00 0.000000e+00
1
Step 504000
Ar -6.791566e-01 0.000000e+00 0.000000e+00
1
Step 505000
Ar -6.743261e-01 0.000000e+00 0.000000e+00
1
Step 506000
Ar -6.183037e-01 0.000000e+00 0.000000e+00
1
Step 507000
Ar -6.192526e-01 0.000000e+00 0.000000e+00
1
Step 508000
Ar -6.317194e-01 0.000000e+00 0.000000e+00
1
Step 509000
Ar -6.448719e-01 0.000000e+00 0.000000e+00
1
Step 510000
Ar -6.226661e-01 0.000000e+00 0.000000e+00
1
Step 511000
Ar -7.561268e-01 0.000000e+00 0.000000e+00
1
Step 512000
Ar -7.523220e-01 0.000000e+00 0.000000e+00
1
Step 513000
Ar -7.552058e-01 0.000000e+00 0.000000e+00
1
Step 514000
Ar -7.546151e-01 0.000000e+00 0.000000e+00
1
Step 515000
Ar -7.578392e-01 0.000000e+00 0.000000e+00
1
Step 516000
Ar -6.067864e-01 0.000000e+00 0.000000e+00
1
Step 517000
Ar -6.088149e-01 0.000000e+00 0.000000e+00
1
Step 518000
Ar -6.084088e-01 0.000000e+00 0.000000e+00
1
Step 519000
Ar -6.047318e-01 0.000000e+00 0.000000e+00
1
Step 520000
Ar -6.073171e-01 0.000000e+00 0.000000e+00
1
Step 521000
Ar -5.737023e-01 0.000000e+00 0.000000e+00
1
Step 522000
Ar -5.841474e-01 0.000000e+00 0.000000e+00
1
Step 523000
Ar -5.799540e-01 0.000000e+00 0.000000e+00
1
Step 524000
Ar -5.715102e-01 0.000000e+00 0.000000e+00
1
Step 525000
Ar -5.741455e-01 0.000000e+00 0.000000e+00
1
Step 526000
Ar -7.524269e-01 0.000000e+00 0.000000e+00
1
Step 527000
Ar -7.489011e-01 0.000000e+00 0.000000e+00
1
Step 528000
Ar -7.490706e-01 0.000000e+00 0.000000e+00
1
Step 529000
Ar -5.040215e-01 0.000000e+00 0.000000e+00
1
Step 530000
Ar -4.617636e-01 0.000000e+00 0.000000e+00
1
Step 531000
Ar -4.165320e-01 0.000000e+00 0.000000e+00
1
Step 532000
Ar -4.321413e-01 0.000000e+00 0.000000e+00
1
Step 533000
Ar -1.368664e-01 0.000000e+00 0.000000e+00
1
Step 534000
Ar -4.009637e-01 0.000000e+00 0.000000e+00
1
Step 535000
Ar -2.890713e-01 0.000000e+00 0.000000e+00
1
Step 536000
Ar -3.514546e-01 0.000000e+00 0.000000e+00
1
Step 537000
Ar -4.380164e-01 0.000000e+00 0.000000e+00
1
Step 538000
Ar -3.927360e-01 0.000000e+00 0.000000e+00
1
Step 539000
Ar -3.373147e-01 0.000000e+00 0.000000e+00
1
Step 540000
Ar -4.386805e-01 0.000000e+00 0.000000e+00
1
Step 541000
Ar 3.970767e-01 0.000000e+00 0.000000e+00
1
Step 542000
Ar 4.299331e-01 0.000000e+00 0.000000e+00
1
Step 543000
Ar 3.918412e-01 0.000000e+00 0.000000e+00
1
Step 544000
Ar 4.282106e-01 0.000000e+00 0.000000e+00
1
Step 545000
Ar 4.446606e-01 0.000000e+00 0.000000e+00
1
Step 546000
Ar 4.302659e-01 0.000000e+00 0.000000e+00
1
Step 547000
Ar 2.189605e-01 0.000000e+00 0.000000e+00
1
Step 548000
Ar 3.761394e-01 0.000000e+00 0.000000e+00
1
Step 549000
Ar 4.297504e-01 0.000000e+00 0.000000e+00
1
Step 550000
Ar 4.187141e-01 0.000000e+00 0.000000e+00
1
Step 551000
Ar -2.443426e-01 0.000000e+00 0.000000e+00
1
Step 552000
Ar 3.709816e-01 0.000000e+00 0.000000e+00
1
Step 553000
Ar 3.586829e-01 0.000000e+00 0.000000e+00
1
Step 554000
Ar 3.087337e-01 0.000000e+00 0.000000e+00
1
Step 555000
Ar 3.136629e-01 0.000000e+00 0.000000e+00
1
Step 556000
Ar -2.788719e-01 0.000000e+00 0.000000e+00
1
Step 557000
Ar 5.614507e-02 0.000000e+00 0.000000e+00
1
Step 558000
Ar 2.434795e-01 0.000000e+00 0.000000e+00
1
Step 559000
Ar 1.703870e-01 0.000000e+00 0.000000e+00
1
Step 560000
Ar -2.106358e-01 0.000000e+00 0.000000e+00
1
Step 561000
Ar 2.977926e-01 0.000000e+00 0.000000e+00
1
Step 562000
Ar 1.502183e-01 0.000000e+00 0.000000e+00
1
Step 563000
Ar -1.218375e-01 0.000000e+00 0.000000e+00
1
Step 564000
Ar 2.897637e-01 0.000000e+00 0.000000e+00
1
Step 565000
Ar -2.884626e-02 0.000000e+00 0.000000e+00
1
Step 566000
Ar -1.484922e-01 0.000000e+00 0.000000e+00
1
Step 567000
Ar -1.021881e-01 0.000000e+00 0.000000e+00
1
Step 568000
Ar -1.311081e-01 0.000000e+00 0.000000e+00
1
Step 569000
Ar -7.289460e-02 0.000000e+00 0.000000e+00
1
Step 570000
Ar -1.780296e-01 0.000000e+00 0.000000e+00
1
Step 571000
Ar -1.598802e-01 0.000000e+00 0.000000e+00
1
Step 572000
Ar -1.629904e-01 0.000000e+00 0.000000e+00
1
Step 573000
Ar -1.479918e-01 0.000000e+00 0.000000e+00
1
Step 574000
Ar -9.349653e-02 0.000000e+00 0.000000e+00
1
Step 575000
Ar -4.920518e-02 0.000000e+00 0.000000e+00
1
Step 576000
Ar -4.068358e-01 0.000000e+00 0.000000e+00
1
Step 577000
Ar -3.882838e-01 0.000000e+00 0.000000e+00
1
Step 578000
Ar -3.181620e-01 0.000000e+00 0.000000e+00
1
Step 579000
Ar -3.452964e-01 0.000000e+00 0.000000e+00
1
Step 580000
Ar -4.004322e-01 0.000000e+00 0.000000e+00
1
Step 581000
Ar -6.345112e-01 0.000000e+00 0.000000e+00
1
Step 582000
Ar -6.381067e-01 0.000000e+00 0.000000e+00
1
Step 583000
Ar -6.471434e-01 0.000000e+00 0.000000e+00
1
Step 584000
Ar -6.435375e-01 0.000000e+00 0.000000e+00
1
Step 585000
Ar -6.485626e-01 0.000000e+00 0.000000e+00
1
Step 586000
Ar -7.812000e-01 0.000000e+00 0.000000e+00
1
Step 587000
Ar -7.809133e-01 0.000000e+00 0.000000e+00
1
Step 588000
Ar -7.322944e-01 0.000000e+00 0.000000e+00
1
Step 589000
Ar -7.382727e-01 0.000000e+00 0.000000e+00
1
Step 590000
Ar -6.319751e-01 0.000000e+00 0.000000e+00
1
Step 591000
Ar -6.840910e-01 0.000000e+00 0.000000e+00
1
Step 592000
Ar -6.831198e-01 0.000000e+00 0.000000e+00
1
Step 593000
Ar -6.867987e-01 0.000000e+00 0.000000e+00
1
Step 594000
Ar -6.877001e-01 0.000000e+00 0.000000e+00
1
Step 595000
Ar -6.841759e-01 0.000000e+00 0.000000e+00
1
Step 596000
Ar -5.300760e-01 0.000000e+00 0.000000e+00
1
Step 597000
Ar -5.031574e-01 0.000000e+00 0.000000e+00
1
Step 598000
Ar -5.013279e-01 0.000000e+00 0.000000e+00
1
Step 599000
Ar -5.340524e-01 0.000000e+00 0.000000e+00
1
Step 600000
Ar -5.329664e-01 0.000000e+00 0.000000e+00
1
Step 601000
Ar -4.900971e-01 0.000000e+00 0.000000e+00
1
Step 602000
Ar -5.189401e-01 0.000000e+00 0.000000e+00
1
Step 603000
Ar -4.884697e-01 0.000000e+00 0.000000e+00
1
Step 604000
Ar -5.028645e-01 0.000000e+00 0.000000e+00
1
Step 605000
Ar -5.030204e-01 0.000000e+00 0.000000e+00
1
Step 606000
Ar -4.761077e-01 0.000000e+00 0.000000e+00
1
Step 607000
Ar -4.814954e-01 0.000000e+00 0.000000e+00
1
Step 608000
Ar -4.841938e-01 0.000000e+00 0.000000e+00
1
Step 609000
Ar -4.799710e-01 0.000000e+00 0.000000e+00
1
Step 610000
Ar -4.815170e-01 0.000000e+00 0.000000e+00
1
Step 611000
Ar -4.508645e-01 0.000000e+00 0.000000e+00
1
Step 612000
Ar -4.539771e-01 0.000000e+00 0.000000e+00
1
Step 613000
Ar -4.493736e-01 0.000000e+00 0.000000e+00
1
Step 614000
Ar -4.535769e-01 0.000000e+00 0.000000e+00
1
Step 615000
Ar -4.511553e-01 0.000000e+00 0.000000e+00
1
Step 616000
Ar -4.143332e-01 0.000000e+00 0.000000e+00
1
Step 617000
Ar -4.253860e-01 0.000000e+00 0.000000e+00
1
Step 618000
Ar -4.165269e-01 0.000000e+00 0.000000e+00
1
Step 619000
Ar -4.180289e-01 0.000000e+00 0.000000e+00
1
Step 620000
Ar -4.260243e-01 0.000000e+00 0.000000e+00
1
Step 621000
Ar -3.760440e-01 0.000000e+00 0.000000e+00
1
Step 622000
Ar -3.336255e-01 0.000000e+00 0.000000e+00
1
Step 623000
Ar -3.761146e-01 0.000000e+00 0.000000e+00
1
Step 624000
Ar -3.311202e-01 0.000000e+00 0.000000e+00
1
Step 625000
Ar -3.814686e-01 0.000000e+00 0.000000e+00
1
Step 626000
Ar -3.900685e-01 0.000000e+00 0.000000e+00
1
Step 627000
Ar -3.202159e-01 0.000000e+00 0.000000e+00
1
Step 628000
Ar -3.578524e-01 0.000000e+00 0.000000e+00
1
Step 629000
Ar -3.471191e-01 0.000000e+00 0.000000e+00
1
Step 630000
Ar -3.644049e-01 0.000000e+00 0.000000e+00
1
Step 631000
Ar -2.582352e-01 0.000000e+00 0.000000e+00
1
Step 632000
Ar -2.261901e-01 0.000000e+00 0.000000e+00
1
Step 633000
Ar -2.588902e-01 0.000000e+00 0.000000e+00
1
Step 634000
Ar -2.770025e-01 0.000000e+00 0.000000e+00
1
Step 635000
Ar -2.692979e-01 0.000000e+00 0.000000e+00
1
Step 636000
Ar -2.387612e-01 0.000000e+00 0.000000e+00
1
Step 637000
Ar -2.270258e-01 0.000000e+00 0.000000e+00
1
Step 638000
Ar -2.494721e-01 0.000000e+00 0.000000e+00
1
Step 639000
Ar -2.494744e-01 0.000000e+00 0.000000e+00
1
Step 640000
Ar -2.550124e-01 0.000000e+00 0.000000e+00
1
Step 641000
Ar -1.901666e-01 0.000000e+00 0.000000e+00
1
Step 642000
Ar -1.946437e-01 0.000000e+00 0.000000e+00
1
Step 643000
Ar -1.930784e-01 0.000000e+00 0.000000e+00
1
Step 644000
Ar -1.932308e-01 0.000000e+00 0.000000e+00
1
Step 645000
Ar -1.926960e-01 0.000000e+00 0.000000e+00
1
Step 646000
Ar -1.307173e-01 0.000000e+00 0.000000e+00
1
Step 647000
Ar -9.909285e-02 0.000000e+00 0.000000e+00
1
Step 648000
Ar -1.526450e-01 0.000000e+00 0.000000e+00
1
Step 649000