1
Step 0
Ar 4.989981e+00 0.000000e+00 0.000000e+00
1
Step 1000
Ar 4.283301e+00 0.000000e+00 0.000000e+00
1
Step 2000
Ar 2.613610e+00 0.000000e+00 0.000000e+00
1
Step 3000
Ar 3.563021e-01 0.000000e+00 0.000000e+00
1
Step 4000
Ar -1.981113e+00 0.000000e+00 0.000000e+00
1
Step 5000
Ar -3.873115e+00 0.000000e+00 0.000000e+00
1
Step 6000
Ar -4.894328e+00 0.000000e+00 0.000000e+00
1
Step 7000
Ar -4.815152e+00 0.000000e+00 0.000000e+00
1
Step 8000
Ar -3.653389e+00 0.000000e+00 0.000000e+00
1
Step 9000
Ar -1.670237e+00 0.000000e+00 0.000000e+00
1
Step 10000
Ar 6.884338e-01 0.000000e+00 0.000000e+00
1
Step 11000
Ar 2.892324e+00 0.000000e+00 0.000000e+00
1
Step 12000
Ar 4.445935e+00 0.000000e+00 0.000000e+00
1
Step 13000
Ar 4.999970e+00 0.000000e+00 0.000000e+00
1
Step 14000
Ar 4.429864e+00 0.000000e+00 0.000000e+00
1
Step 15000
Ar 2.863795e+00 0.000000e+00 0.000000e+00
1
Step 16000
Ar 6.538613e-01 0.000000e+00 0.000000e+00
1
Step 17000
Ar -1.703080e+00 0.000000e+00 0.000000e+00
1
Step 18000
Ar -3.677119e+00 0.000000e+00 0.000000e+00
1
Step 19000
Ar -4.824434e+00 0.000000e+00 0.000000e+00
1
Step 20000
Ar -4.887074e+00 0.000000e+00 0.000000e+00
1
Step 21000
Ar -3.850957e+00 0.000000e+00 0.000000e+00
1
Step 22000
Ar -1.949032e+00 0.000000e+00 0.000000e+00
1
Step 23000
Ar 3.910927e-01 0.000000e+00 0.000000e+00
1
Step 24000
Ar 2.643288e+00 0.000000e+00 0.000000e+00
1
Step 25000
Ar 4.301195e+00 0.000000e+00 0.000000e+00
1
Step 26000
Ar 4.992067e+00 0.000000e+00 0.000000e+00
1
Step 27000
Ar 4.560576e+00 0.000000e+00 0.000000e+00
1
Step 28000
Ar 3.103734e+00 0.000000e+00 0.000000e+00
1
Step 29000
Ar 9.490809e-01 0.000000e+00 0.000000e+00
1
Step 30000
Ar -1.418953e+00 0.000000e+00 0.000000e+00
1
Step 31000
Ar -3.467965e+00 0.000000e+00 0.000000e+00
1
Step 32000
Ar -4.737276e+00 0.000000e+00 0.000000e+00
1
Step 33000
Ar -4.941509e+00 0.000000e+00 0.000000e+00
1
Step 34000
Ar -4.034746e+00 0.000000e+00 0.000000e+00
1
Step 35000
Ar -2.220853e+00 0.000000e+00 0.000000e+00
1
Step 36000
Ar 9.235220e-02 0.000000e+00 0.000000e+00
1
Step 37000
Ar 2.384794e+00 0.000000e+00 0.000000e+00
1
Step 38000
Ar 4.141064e+00 0.000000e+00 0.000000e+00
1
Step 39000
Ar 4.966302e+00 0.000000e+00 0.000000e+00
1
Step 40000
Ar 4.674969e+00 0.000000e+00 0.000000e+00
1
Step 41000
Ar 3.332566e+00 0.000000e+00 0.000000e+00
1
Step 42000
Ar 1.240905e+00 0.000000e+00 0.000000e+00
1
Step 43000
Ar -1.129749e+00 0.000000e+00 0.000000e+00
1
Step 44000
Ar -3.246402e+00 0.000000e+00 0.000000e+00
1
Step 45000
Ar -4.633168e+00 0.000000e+00 0.000000e+00
1
Step 46000
Ar -4.978262e+00 0.000000e+00 0.000000e+00
1
Step 47000
Ar -4.204097e+00 0.000000e+00 0.000000e+00
1
Step 48000
Ar -2.484728e+00 0.000000e+00 0.000000e+00
1
Step 49000
Ar -2.067188e-01 0.000000e+00 0.000000e+00
1
Step 50000
Ar 2.117767e+00 0.000000e+00 0.000000e+00
1
Step 51000
Ar 3.966116e+00 0.000000e+00 0.000000e+00
1
Step 52000
Ar 4.922766e+00 0.000000e+00 0.000000e+00
1
Step 53000
Ar 4.772634e+00 0.000000e+00 0.000000e+00
1
Step 54000
Ar 3.549474e+00 0.000000e+00 0.000000e+00
1
Step 55000
Ar 1.528288e+00 0.000000e+00 0.000000e+00
1
Step 56000
Ar -8.365022e-01 0.000000e+00 0.000000e+00
1
Step 57000
Ar -3.013222e+00 0.000000e+00 0.000000e+00
1
Step 58000
Ar -4.512481e+00 0.000000e+00 0.000000e+00
1
Step 59000
Ar -4.997202e+00 0.000000e+00 0.000000e+00
1
Step 60000
Ar -4.358406e+00 0.000000e+00 0.000000e+00
1
Step 61000
Ar -2.739712e+00 0.000000e+00 0.000000e+00
1
Step 62000
Ar -5.050501e-01 0.000000e+00 0.000000e+00
1
Step 63000
Ar 1.843162e+00 0.000000e+00 0.000000e+00
1
Step 64000
Ar 3.776976e+00 0.000000e+00 0.000000e+00
1
Step 65000
Ar 4.861616e+00 0.000000e+00 0.000000e+00
1
Step 66000
Ar 4.853222e+00 0.000000e+00 0.000000e+00
1
Step 67000
Ar 3.753681e+00 0.000000e+00 0.000000e+00
1
Step 68000
Ar 1.810203e+00 0.000000e+00 0.000000e+00
1
Step 69000
Ar -5.402624e-01 0.000000e+00 0.000000e+00
1
Step 70000
Ar -2.769261e+00 0.000000e+00 0.000000e+00
1
Step 71000
Ar -4.375648e+00 0.000000e+00 0.000000e+00
1
Step 72000
Ar -4.998261e+00 0.000000e+00 0.000000e+00
1
Step 73000
Ar -4.497119e+00 0.000000e+00 0.000000e+00
1
Step 74000
Ar -2.984892e+00 0.000000e+00 0.000000e+00
1
Step 75000
Ar -8.015742e-01 0.000000e+00 0.000000e+00
1
Step 76000
Ar 1.561961e+00 0.000000e+00 0.000000e+00
1
Step 77000
Ar 3.574322e+00 0.000000e+00 0.000000e+00
1
Step 78000
Ar 4.783070e+00 0.000000e+00 0.000000e+00
1
Step 79000
Ar 4.916444e+00 0.000000e+00 0.000000e+00
1
Step 80000
Ar 3.944457e+00 0.000000e+00 0.000000e+00
1
Step 81000
Ar 2.085640e+00 0.000000e+00 0.000000e+00
1
Step 82000
Ar -2.420894e-01 0.000000e+00 0.000000e+00
1
Step 83000
Ar -2.515390e+00 0.000000e+00 0.000000e+00
1
Step 84000
Ar -4.223158e+00 0.000000e+00 0.000000e+00
1
Step 85000
Ar -4.981435e+00 0.000000e+00 0.000000e+00
1
Step 86000
Ar -4.619740e+00 0.000000e+00 0.000000e+00
1
Step 87000
Ar -3.219392e+00 0.000000e+00 0.000000e+00
1
Step 88000
Ar -1.095230e+00 0.000000e+00 0.000000e+00
1
Step 89000
Ar 1.275172e+00 0.000000e+00 0.000000e+00
1
Step 90000
Ar 3.358878e+00 0.000000e+00 0.000000e+00
1
Step 91000
Ar 4.687409e+00 0.000000e+00 0.000000e+00
1
Step 92000
Ar 4.962074e+00 0.000000e+00 0.000000e+00
1
Step 93000
Ar 4.121119e+00 0.000000e+00 0.000000e+00
1
Step 94000
Ar 2.353615e+00 0.000000e+00 0.000000e+00
1
Step 95000
Ar 5.694988e-02 0.000000e+00 0.000000e+00
1
Step 96000
Ar -2.252519e+00 0.000000e+00 0.000000e+00
1
Step 97000
Ar -4.055556e+00 0.000000e+00 0.000000e+00
1
Step 98000
Ar -4.946785e+00 0.000000e+00 0.000000e+00
1
Step 99000
Ar -4.725831e+00 0.000000e+00 0.000000e+00
