1
Step 120000
Ar 1.103951e+00 0.000000e+00 0.000000e+00
1
Step 121000
Ar 1.029509e+00 0.000000e+00 0.000000e+00
1
Step 122000
Ar 1.180005e+00 0.000000e+00 0.000000e+00
1
Step 123000
Ar 1.144094e+00 0.000000e+00 0.000000e+00
1
Step 124000
Ar 1.081867e+00 0.000000e+00 0.000000e+00
1
Step 125000
Ar 1.127491e+00 0.000000e+00 0.000000e+00
1
Step 126000
Ar 7.425542e-01 0.000000e+00 0.000000e+00
1
Step 127000
Ar 8.414359e-01 0.000000e+00 0.000000e+00
1
Step 128000
Ar 9.005877e-01 0.000000e+00 0.000000e+00
1
Step 129000
Ar 9.018743e-01 0.000000e+00 0.000000e+00
1
Step 130000
Ar 7.225457e-01 0.000000e+00 0.000000e+00
1
Step 131000
Ar 6.423721e-01 0.000000e+00 0.000000e+00
1
Step 132000
Ar 6.772183e-01 0.000000e+00 0.000000e+00
1
Step 133000
Ar 1.119536e+00 0.000000e+00 0.000000e+00
1
Step 134000
Ar 1.061867e+00 0.000000e+00 0.000000e+00
1
Step 135000
Ar 9.303806e-01 0.000000e+00 0.000000e+00
1
Step 136000
Ar 1.153004e+00 0.000000e+00 0.000000e+00
1
Step 137000
Ar 1.178991e+00 0.000000e+00 0.000000e+00
1
Step 138000
Ar 1.204148e+00 0.000000e+00 0.000000e+00
1
Step 139000
Ar 1.280898e+00 0.000000e+00 0.000000e+00
1
Step 140000
Ar 1.130879e+00 0.000000e+00 0.000000e+00
1
Step 141000
Ar 1.058422e+00 0.000000e+00 0.000000e+00
1
Step 142000
Ar 1.021924e+00 0.000000e+00 0.000000e+00
1
Step 143000
Ar 9.842260e-01 0.000000e+00 0.000000e+00
1
Step 144000
Ar 9.603035e-01 0.000000e+00 0.000000e+00
1
Step 145000
Ar 9.872677e-01 0.000000e+00 0.000000e+00
1
Step 146000
Ar 7.858301e-01 0.000000e+00 0.000000e+00
1
Step 147000
Ar 7.846257e-01 0.000000e+00 0.000000e+00
1
Step 148000
Ar 7.737304e-01 0.000000e+00 0.000000e+00
1
Step 149000
Ar 8.449263e-01 0.000000e+00 0.000000e+00
1
Step 150000
Ar 8.775178e-01 0.000000e+00 0.000000e+00
1
Step 151000
Ar 9.587183e-01 0.000000e+00 0.000000e+00
1
Step 152000
Ar 9.726642e-01 0.000000e+00 0.000000e+00
1
Step 153000
Ar 9.873614e-01 0.000000e+00 0.000000e+00
1
Step 154000
Ar 9.893797e-01 0.000000e+00 0.000000e+00
1
Step 155000
Ar 7.246456e-01 0.000000e+00 0.000000e+00
1
Step 156000
Ar 8.992266e-01 0.000000e+00 0.000000e+00
1
Step 157000
Ar 9.686035e-01 0.000000e+00 0.000000e+00
1
Step 158000
Ar 1.229611e+00 0.000000e+00 0.000000e+00
1
Step 159000
Ar 1.229590e+00 0.000000e+00 0.000000e+00
1
Step 160000
Ar 1.173186e+00 0.000000e+00 0.000000e+00
1
Step 161000
Ar 1.142448e+00 0.000000e+00 0.000000e+00
1
Step 162000
Ar 1.172317e+00 0.000000e+00 0.000000e+00
1
Step 163000
Ar 1.144915e+00 0.000000e+00 0.000000e+00
1
Step 164000
Ar 1.350851e+00 0.000000e+00 0.000000e+00
1
Step 165000
Ar 1.232306e+00 0.000000e+00 0.000000e+00
1
Step 166000
Ar 1.102099e+00 0.000000e+00 0.000000e+00
1
Step 167000
Ar 1.104516e+00 0.000000e+00 0.000000e+00
1
Step 168000
Ar 1.038090e+00 0.000000e+00 0.000000e+00
1
Step 169000
Ar 1.019963e+00 0.000000e+00 0.000000e+00
1
Step 170000
Ar 1.035645e+00 0.000000e+00 0.000000e+00
1
Step 171000
Ar 1.141752e+00 0.000000e+00 0.000000e+00
1
Step 172000
Ar 1.136284e+00 0.000000e+00 0.000000e+00
1
Step 173000
Ar 1.142762e+00 0.000000e+00 0.000000e+00
1
Step 174000
Ar 1.031285e+00 0.000000e+00 0.000000e+00
1
Step 175000
Ar 1.036186e+00 0.000000e+00 0.000000e+00
1
Step 176000
Ar 1.122374e+00 0.000000e+00 0.000000e+00
1
Step 177000
Ar 1.285012e+00 0.000000e+00 0.000000e+00
1
Step 178000
Ar 1.269969e+00 0.000000e+00 0.000000e+00
1
Step 179000
Ar 1.338744e+00 0.000000e+00 0.000000e+00
1
Step 180000
Ar 1.330290e+00 0.000000e+00 0.000000e+00
1
Step 181000
Ar 1.335658e+00 0.000000e+00 0.000000e+00
1
Step 182000
Ar 1.198334e+00 0.000000e+00 0.000000e+00
1
Step 183000
Ar 1.264003e+00 0.000000e+00 0.000000e+00
1
Step 184000
Ar 1.270735e+00 0.000000e+00 0.000000e+00
1
Step 185000
Ar 1.272185e+00 0.000000e+00 0.000000e+00
1
Step 186000
Ar 1.264758e+00 0.000000e+00 0.000000e+00
1
Step 187000
Ar 1.204913e+00 0.000000e+00 0.000000e+00
1
Step 188000
Ar 1.388537e+00 0.000000e+00 0.000000e+00
1
Step 189000
Ar 1.377722e+00 0.000000e+00 0.000000e+00
1
Step 190000
Ar 1.330299e+00 0.000000e+00 0.000000e+00
1
Step 191000
Ar 1.393658e+00 0.000000e+00 0.000000e+00
1
Step 192000
Ar 1.348791e+00 0.000000e+00 0.000000e+00
1
Step 193000
Ar 1.472520e+00 0.000000e+00 0.000000e+00
1
Step 194000
Ar 1.476585e+00 0.000000e+00 0.000000e+00
1
Step 195000
Ar 7.800962e-01 0.000000e+00 0.000000e+00
1
Step 196000
Ar 8.178090e-01 0.000000e+00 0.000000e+00
1
Step 197000
Ar 8.122918e-01 0.000000e+00 0.000000e+00
1
Step 198000
Ar 8.493958e-01 0.000000e+00 0.000000e+00
1
Step 199000
Ar 8.722567e-01 0.000000e+00 0.000000e+00
1
Step 200000
Ar 8.795943e-01 0.000000e+00 0.000000e+00
1
Step 201000
Ar 8.409195e-01 0.000000e+00 0.000000e+00
1
Step 202000
Ar 7.055864e-01 0.000000e+00 0.000000e+00
1
Step 203000
Ar 5.396149e-01 0.000000e+00 0.000000e+00
1
Step 204000
Ar 5.724130e-01 0.000000e+00 0.000000e+00
1
Step 205000
Ar 4.850761e-01 0.000000e+00 0.000000e+00
1
Step 206000
Ar 4.698259e-01 0.000000e+00 0.000000e+00
1
Step 207000
Ar 7.899607e-01 0.000000e+00 0.000000e+00
1
Step 208000
Ar 7.193799e-01 0.000000e+00 0.000000e+00
1
Step 209000
Ar 7.444279e-01 0.000000e+00 0.000000e+00
1
Step 210000
Ar 9.351559e-01 0.000000e+00 0.000000e+00
1
Step 211000
Ar 9.416081e-01 0.000000e+00 0.000000e+00
1
Step 212000
Ar 9.377628e-01 0.000000e+00 0.000000e+00
1
Step 213000
Ar 9.254318e-01 0.000000e+00 0.000000e+00
1
Step 214000
Ar 1.178773e+00 0.000000e+00 0.000000e+00
1
Step 215000
Ar 1.216759e+00 0.000000e+00 0.000000e+00
1
Step 216000
Ar 1.225570e+00 0.000000e+00 0.000000e+00
1
Step 217000
Ar 1.242758e+00 0.000000e+00 0.000000e+00
1
Step 218000
Ar 1.196510e+00 0.000000e+00 0.000000e+00
1
Step 219000
Ar 1.182259e+00 0.000000e+00 0.000000e+00
1
Step 220000
Ar 1.240071e+00 0.000000e+00 0.000000e+00
1
Step 221000
Ar 8.075700e-01 0.000000e+00 0.000000e+00
1
Step 222000
Ar 6.109948e-01 0.000000e+00 0.000000e+00
1
Step 223000
Ar 6.387554e-01 0.000000e+00 0.000000e+00
1
Step 224000
Ar 6.167755e-01 0.000000e+00 0.000000e+00
1
Step 225000
Ar 6.169646e-01 0.000000e+00 0.000000e+00
1
Step 226000
Ar 6.853034e-01 0.000000e+00 0.000000e+00
1
Step 227000
Ar 6.645258e-01 0.000000e+00 0.000000e+00
1
Step 228000
Ar 4.623796e-01 0.000000e+00 0.000000e+00
1
Step 229000
Ar 4.802418e-01 0.000000e+00 0.000000e+00
1
Step 230000
Ar 1.306935e-01 0.000000e+00 0.000000e+00
1
Step 231000
Ar -9.887124e-01 0.000000e+00 0.000000e+00
1
Step 232000
Ar -8.338605e-01 0.000000e+00 0.000000e+00
1
Step 233000
Ar -5.751383e-01 0.000000e+00 0.000000e+00
1
Step 234000
Ar -7.174431e-01 0.000000e+00 0.000000e+00
1
Step 235000
Ar -9.050917e-01 0.000000e+00 0.000000e+00
1
Step 236000
Ar -8.877158e-01 0.000000e+00 0.000000e+00
1
Step 237000
Ar -9.267597e-01 0.000000e+00 0.000000e+00
1
Step 238000
Ar -9.449756e-01 0.000000e+00 0.000000e+00
1
Step 239000
Ar -8.950668e-01 0.000000e+00 0.000000e+00
1
Step 240000
Ar -8.896837e-01 0.000000e+00 0.000000e+00
1
Step 241000
Ar -8.819699e-01 0.000000e+00 0.000000e+00
1
Step 242000
Ar -9.832922e-01 0.000000e+00 0.000000e+00
1
Step 243000
Ar -9.086836e-01 0.000000e+00 0.000000e+00
1
Step 244000
Ar -8.958760e-01 0.000000e+00 0.000000e+00
1
Step 245000
Ar -8.870299e-01 0.000000e+00 0.000000e+00
1
Step 246000
Ar -8.895451e-01 0.000000e+00 0.000000e+00
1
Step 247000
Ar -8.865411e-01 0.000000e+00 0.000000e+00
1
Step 248000
Ar -8.867290e-01 0.000000e+00 0.000000e+00
1
Step 249000
Ar -9.124712e-01 0.000000e+00 0.000000e+00
1
Step 250000
Ar -8.962863e-01 0.000000e+00 0.000000e+00
1
Step 251000
Ar -7.005260e-01 0.000000e+00 0.000000e+00
1
Step 252000
Ar -6.907173e-01 0.000000e+00 0.000000e+00
1
Step 253000
Ar -6.816528e-01 0.000000e+00 0.000000e+00
1
Step 254000
Ar -6.234684e-01 0.000000e+00 0.000000e+00
1
Step 255000
Ar -4.658584e-01 0.000000e+00 0.000000e+00
1
Step 256000
Ar -4.996433e-01 0.000000e+00 0.000000e+00
1
Step 257000
Ar -5.827473e-01 0.000000e+00 0.000000e+00
1
Step 258000
Ar -6.825668e-01 0.000000e+00 0.000000e+00
1
Step 259000
Ar -6.240388e-01 0.000000e+00 0.000000e+00
1
Step 260000
Ar -6.796989e-01 0.000000e+00 0.000000e+00
1
Step 261000
Ar -5.628661e-01 0.000000e+00 0.000000e+00
1
Step 262000
Ar -5.246251e-01 0.000000e+00 0.000000e+00
1
Step 263000
Ar -4.525869e-01 0.000000e+00 0.000000e+00
1
Step 264000
Ar -4.333865e-01 0.000000e+00 0.000000e+00
1
Step 265000
Ar -5.014808e-01 0.000000e+00 0.000000e+00
1
Step 266000
Ar -5.149065e-01 0.000000e+00 0.000000e+00
1
Step 267000
Ar -3.828511e-01 0.000000e+00 0.000000e+00
1
Step 268000
Ar -3.701571e-01 0.000000e+00 0.000000e+00
1
Step 269000
Ar -3.702529e-01 0.000000e+00 0.000000e+00
1
Step 270000
Ar -3.744758e-01 0.000000e+00 0.000000e+00
1
Step 271000
Ar -4.772555e-01 0.000000e+00 0.000000e+00
1
Step 272000
Ar -4.784956e-01 0.000000e+00 0.000000e+00
1
Step 273000
Ar -5.093613e-01 0.000000e+00 0.000000e+00
1
Step 274000
Ar -4.708547e-01 0.000000e+00 0.000000e+00
1
Step 275000
Ar -6.571520e-01 0.000000e+00 0.000000e+00
1
Step 276000
Ar -6.601721e-01 0.000000e+00 0.000000e+00
1
Step 277000
Ar -5.997258e-01 0.000000e+00 0.000000e+00
1
Step 278000
Ar -7.768790e-01 0.000000e+00 0.000000e+00
1
Step 279000
Ar -8.157722e-01 0.000000e+00 0.000000e+00
1
Step 280000
Ar -1.065079e+00 0.000000e+00 0.000000e+00
1
Step 281000
Ar -1.211638e+00 0.000000e+00 0.000000e+00
1
Step 282000
Ar -1.063788e+00 0.000000e+00 0.000000e+00
1
Step 283000
Ar -1.119979e+00 0.000000e+00 0.000000e+00
1
Step 284000
Ar -1.119889e+00 0.000000e+00 0.000000e+00
1
Step 285000
Ar -1.139597e+00 0.000000e+00 0.000000e+00
1
Step 286000
Ar -1.130648e+00 0.000000e+00 0.000000e+00
1
Step 287000
Ar -1.127836e+00 0.000000e+00 0.000000e+00
1
Step 288000
Ar -1.130374e+00 0.000000e+00 0.000000e+00
1
Step 289000
Ar -1.123790e+00 0.000000e+00 0.000000e+00
1
Step 290000
Ar -1.114345e+00 0.000000e+00 0.000000e+00
1
Step 291000
Ar -1.116595e+00 0.000000e+00 0.000000e+00
1
Step 292000
Ar -1.123530e+00 0.000000e+00 0.000000e+00
1
Step 293000
Ar -1.005997e+00 0.000000e+00 0.000000e+00
1
Step 294000
Ar -1.089086e+00 0.000000e+00 0.000000e+00
1
Step 295000
Ar -1.088302e+00 0.000000e+00 0.000000e+00
1
Step 296000
Ar -1.036481e+00 0.000000e+00 0.000000e+00
1
Step 297000
Ar -1.034990e+00 0.000000e+00 0.000000e+00
1
Step 298000
Ar -9.500218e-01 0.000000e+00 0.000000e+00
1
Step 299000
Ar -9.454205e-01 0.000000e+00 0.000000e+00
1
Step 300000
Ar -9.523628e-01 0.000000e+00 0.000000e+00
1
Step 301000
Ar -9.463481e-01 0.000000e+00 0.000000e+00
1
Step 302000
Ar -9.008159e-01 0.000000e+00 0.000000e+00
1
Step 303000
Ar -9.897562e-01 0.000000e+00 0.000000e+00
1
Step 304000
Ar -1.016306e+00 0.000000e+00 0.000000e+00
1
Step 305000
Ar -1.299336e+00 0.000000e+00 0.000000e+00
1
Step 306000
Ar -1.173037e+00 0.000000e+00 0.000000e+00
1
Step 307000
Ar -1.088728e+00 0.000000e+00 0.000000e+00
1
Step 308000
Ar -1.096742e+00 0.000000e+00 0.000000e+00
1
Step 309000
Ar -1.162892e+00 0.000000e+00 0.000000e+00
1
Step 310000
Ar -1.352185e+00 0.000000e+00 0.000000e+00
1
Step 311000
Ar -1.311184e+00 0.000000e+00 0.000000e+00
1
Step 312000
Ar -1.199862e+00 0.000000e+00 0.000000e+00
1
Step 313000
Ar -1.163600e+00 0.000000e+00 0.000000e+00
1
Step 314000
Ar -1.269389e+00 0.000000e+00 0.000000e+00
1
Step 315000
Ar -1.268631e+00 0.000000e+00 0.000000e+00
1
Step 316000
Ar -1.208240e+00 0.000000e+00 0.000000e+00
1
Step 317000
Ar -1.112646e+00 0.000000e+00 0.000000e+00
1
Step 318000
Ar -1.208700e+00 0.000000e+00 0.000000e+00
1
Step 319000
Ar -1.359854e+00 0.000000e+00 0.000000e+00
1
Step 320000
Ar -1.340705e+00 0.000000e+00 0.000000e+00
1
Step 321000
Ar -1.217283e+00 0.000000e+00 0.000000e+00
1
Step 322000
Ar -1.161961e+00 0.000000e+00 0.000000e+00
1
Step 323000
Ar -1.058419e+00 0.000000e+00 0.000000e+00
1
Step 324000
Ar -1.058418e+00 0.000000e+00 0.000000e+00
1
Step 325000
Ar -8.274427e-01 0.000000e+00 0.000000e+00
1
Step 326000
Ar -8.311347e-01 0.000000e+00 0.000000e+00
1
Step 327000
Ar -8.730425e-01 0.000000e+00 0.000000e+00
1
Step 328000
Ar -8.858760e-01 0.000000e+00 0.000000e+00
1
Step 329000
Ar -9.249474e-01 0.000000e+00 0.000000e+00
1
Step 330000
Ar -9.534241e-01 0.000000e+00 0.000000e+00
1
Step 331000
Ar -9.470210e-01 0.000000e+00 0.000000e+00
1
Step 332000
Ar -9.450778e-01 0.000000e+00 0.000000e+00
1
Step 333000
Ar -8.956785e-01 0.000000e+00 0.000000e+00
1
Step 334000
Ar -8.662776e-01 0.000000e+00 0.000000e+00
1
Step 335000
Ar -8.243059e-01 0.000000e+00 0.000000e+00
1
Step 336000
Ar -8.291890e-01 0.000000e+00 0.000000e+00
1
Step 337000
Ar -8.143148e-01 0.000000e+00 0.000000e+00
1
Step 338000
Ar -8.290818e-01 0.000000e+00 0.000000e+00
1
Step 339000
Ar -7.397659e-01 0.000000e+00 0.000000e+00
1
Step 340000
Ar -7.307348e-01 0.000000e+00 0.000000e+00
1
Step 341000
Ar -7.319002e-01 0.000000e+00 0.000000e+00
1
Step 342000
Ar -7.286218e-01 0.000000e+00 0.000000e+00
1
Step 343000
Ar -7.171128e-01 0.000000e+00 0.000000e+00
1
Step 344000
Ar -9.276538e-01 0.000000e+00 0.000000e+00
1
Step 345000
Ar -9.689876e-01 0.000000e+00 0.000000e+00
1
Step 346000
Ar -9.762704e-01 0.000000e+00 0.000000e+00
1
Step 347000
Ar -9.699387e-01 0.000000e+00 0.000000e+00
1
Step 348000
Ar -9.731492e-01 0.000000e+00 0.000000e+00
1
Step 349000
Ar -9.685460e-01 0.000000e+00 0.000000e+00
1
Step 350000
Ar -9.867470e-01 0.000000e+00 0.000000e+00
1
Step 351000
Ar -1.094953e+00 0.000000e+00 0.000000e+00
1
Step 352000
Ar -1.087362e+00 0.000000e+00 0.000000e+00
1
Step 353000
Ar -1.198610e+00 0.000000e+00 0.000000e+00
1
Step 354000
Ar -1.217732e+00 0.000000e+00 0.000000e+00
1
Step 355000
Ar -1.237483e+00 0.000000e+00 0.000000e+00
1
Step 356000
Ar -1.233827e+00 0.000000e+00 0.000000e+00
1
Step 357000
Ar -1.089022e+00 0.000000e+00 0.000000e+00
1
Step 358000
Ar -1.076980e+00 0.000000e+00 0.000000e+00
1
Step 359000
Ar -1.120039e+00 0.000000e+00 0.000000e+00
1
Step 360000
Ar -1.010935e+00 0.000000e+00 0.000000e+00
1
Step 361000
Ar -9.830092e-01 0.000000e+00 0.000000e+00
1
Step 362000
Ar -9.747077e-01 0.000000e+00 0.000000e+00
1
Step 363000
Ar -1.166215e+00 0.000000e+00 0.000000e+00
1
Step 364000
Ar -1.081492e+00 0.000000e+00 0.000000e+00
1
Step 365000
Ar -1.027344e+00 0.000000e+00 0.000000e+00
1
Step 366000
Ar -1.129098e+00 0.000000e+00 0.000000e+00
1
Step 367000
Ar -1.146345e+00 0.000000e+00 0.000000e+00
1
Step 368000
Ar -1.175940e+00 0.000000e+00 0.000000e+00
1
Step 369000
Ar -1.141364e+00 0.000000e+00 0.000000e+00
1
Step 370000
Ar -8.071150e-01 0.000000e+00 0.000000e+00
1
Step 371000
Ar -8.609116e-01 0.000000e+00 0.000000e+00
1
Step 372000
Ar -9.280130e-01 0.000000e+00 0.000000e+00
1
Step 373000
Ar -9.267817e-01 0.000000e+00 0.000000e+00
1
Step 374000
Ar -8.272464e-01 0.000000e+00 0.000000e+00
1
Step 375000
Ar -7.339598e-01 0.000000e+00 0.000000e+00
1
Step 376000
Ar -7.507072e-01 0.000000e+00 0.000000e+00
1
Step 377000
Ar -7.598210e-01 0.000000e+00 0.000000e+00
1
Step 378000
Ar -7.615363e-01 0.000000e+00 0.000000e+00
1
Step 379000
Ar -7.840161e-01 0.000000e+00 0.000000e+00
1
Step 380000
Ar -7.205602e-01 0.000000e+00 0.000000e+00
1
Step 381000
Ar -8.051004e-01 0.000000e+00 0.000000e+00
1
Step 382000
Ar -6.450468e-01 0.000000e+00 0.000000e+00
1
Step 383000
Ar -7.574768e-01 0.000000e+00 0.000000e+00
1
Step 384000
Ar -7.241783e-01 0.000000e+00 0.000000e+00
1
Step 385000
Ar -7.666664e-01 0.000000e+00 0.000000e+00
1
Step 386000
Ar -7.670150e-01 0.000000e+00 0.000000e+00
1
Step 387000
Ar -7.509441e-01 0.000000e+00 0.000000e+00
1
Step 388000
Ar -8.642177e-01 0.000000e+00 0.000000e+00
1
Step 389000
Ar -8.748040e-01 0.000000e+00 0.000000e+00
1
Step 390000
Ar -9.826141e-01 0.000000e+00 0.000000e+00
1
Step 391000
Ar -9.137096e-01 0.000000e+00 0.000000e+00
1
Step 392000
Ar -9.120579e-01 0.000000e+00 0.000000e+00
1
Step 393000
Ar -9.170216e-01 0.000000e+00 0.000000e+00
1
Step 394000
Ar -1.355822e+00 0.000000e+00 0.000000e+00
1
Step 395000
Ar -1.367083e+00 0.000000e+00 0.000000e+00
1
Step 396000
Ar -1.329149e+00 0.000000e+00 0.000000e+00
1
Step 397000
Ar -1.134382e+00 0.000000e+00 0.000000e+00
1
Step 398000
Ar -1.363714e+00 0.000000e+00 0.000000e+00
1
Step 399000
Ar -1.310536e+00 0.000000e+00 0.000000e+00
1
Step 400000
Ar -1.450564e+00 0.000000e+00 0.000000e+00
1
Step 401000
Ar -1.317787e+00 0.000000e+00 0.000000e+00
1
Step 402000
Ar -1.381936e+00 0.000000e+00 0.000000e+00
1
Step 403000
Ar -1.347816e+00 0.000000e+00 0.000000e+00
1
Step 404000
Ar -1.317815e+00 0.000000e+00 0.000000e+00
1
Step 405000
Ar -1.314911e+00 0.000000e+00 0.000000e+00
1
Step 406000
Ar -1.195624e+00 0.000000e+00 0.000000e+00
1
Step 407000
Ar -1.408316e+00 0.000000e+00 0.000000e+00
1
Step 408000
Ar -1.412505e+00 0.000000e+00 0.000000e+00
1
Step 409000
Ar -1.398075e+00 0.000000e+00 0.000000e+00
1
Step 410000
Ar -1.451415e+00 0.000000e+00 0.000000e+00
1
Step 411000
Ar -1.436905e+00 0.000000e+00 0.000000e+00
1
Step 412000
Ar -1.160721e+00 0.000000e+00 0.000000e+00
1
Step 413000
Ar -1.305074e+00 0.000000e+00 0.000000e+00
1
Step 414000
Ar -1.274726e+00 0.000000e+00 0.000000e+00
1
Step 415000
Ar -1.320306e+00 0.000000e+00 0.000000e+00
1
Step 416000
Ar -1.311580e+00 0.000000e+00 0.000000e+00
1
Step 417000
Ar -1.263805e+00 0.000000e+00 0.000000e+00
1
Step 418000
Ar -1.195401e+00 0.000000e+00 0.000000e+00
1
Step 419000
Ar -1.043478e+00 0.000000e+00 0.000000e+00
1
Step 420000
Ar -1.077933e+00 0.000000e+00 0.000000e+00
1
Step 421000
Ar -1.022822e+00 0.000000e+00 0.000000e+00
1
Step 422000
Ar -1.021819e+00 0.000000e+00 0.000000e+00
1
Step 423000
Ar -1.024844e+00 0.000000e+00 0.000000e+00
1
Step 424000
Ar -5.904722e-01 0.000000e+00 0.000000e+00
1
Step 425000
Ar -5.993988e-01 0.000000e+00 0.000000e+00
1
Step 426000
Ar -5.965722e-01 0.000000e+00 0.000000e+00
1
Step 427000
Ar -6.309430e-01 0.000000e+00 0.000000e+00
1
Step 428000
Ar -7.660807e-01 0.000000e+00 0.000000e+00
1
Step 429000
Ar -6.729321e-01 0.000000e+00 0.000000e+00
1
Step 430000
Ar -6.797298e-01 0.000000e+00 0.000000e+00
1
Step 431000
Ar -2.758065e-01 0.000000e+00 0.000000e+00
1
Step 432000
Ar -3.370216e-01 0.000000e+00 0.000000e+00
1
Step 433000
Ar -2.930701e-01 0.000000e+00 0.000000e+00
1
Step 434000
Ar -3.693568e-01 0.000000e+00 0.000000e+00
1
Step 435000
Ar -3.693854e-01 0.000000e+00 0.000000e+00
1
Step 436000
Ar -5.083261e-01 0.000000e+00 0.000000e+00
1
Step 437000
Ar -5.126971e-01 0.000000e+00 0.000000e+00
1
Step 438000
Ar -5.132943e-01 0.000000e+00 0.000000e+00
1
Step 439000
Ar -4.496596e-01 0.000000e+00 0.000000e+00
1
Step 440000
Ar -4.549683e-01 0.000000e+00 0.000000e+00
1
Step 441000
Ar -3.072314e-01 0.000000e+00 0.000000e+00
1
Step 442000
Ar -2.819633e-01 0.000000e+00 0.000000e+00
1
Step 443000
Ar -2.351080e-01 0.000000e+00 0.000000e+00
1
Step 444000
Ar -2.320616e-01 0.000000e+00 0.000000e+00
1
Step 445000
Ar -2.685804e-01 0.000000e+00 0.000000e+00
1
Step 446000
Ar -1.289154e-01 0.000000e+00 0.000000e+00
1
Step 447000
Ar 8.152247e-01 0.000000e+00 0.000000e+00
1
Step 448000
Ar 8.456376e-01 0.000000e+00 0.000000e+00
1
Step 449000
Ar 7.843974e-01 0.000000e+00 0.000000e+00
1
Step 450000
Ar 8.586717e-01 0.000000e+00 0.000000e+00
1
Step 451000
Ar 8.554061e-01 0.000000e+00 0.000000e+00
1
Step 452000
Ar 8.785439e-01 0.000000e+00 0.000000e+00
1
Step 453000
Ar 8.661640e-01 0.000000e+00 0.000000e+00
1
Step 454000
Ar 7.769900e-01 0.000000e+00 0.000000e+00
1
Step 455000
Ar 7.739113e-01 0.000000e+00 0.000000e+00
1
Step 456000
Ar 7.692051e-01 0.000000e+00 0.000000e+00
1
Step 457000
Ar 7.761237e-01 0.000000e+00 0.000000e+00
1
Step 458000
Ar 7.822003e-01 0.000000e+00 0.000000e+00
1
Step 459000
Ar 8.216421e-01 0.000000e+00 0.000000e+00
1
Step 460000
Ar 7.146933e-01 0.000000e+00 0.000000e+00
1
Step 461000
Ar 7.601974e-01 0.000000e+00 0.000000e+00
1
Step 462000
Ar 6.947100e-01 0.000000e+00 0.000000e+00
1
Step 463000
Ar 7.528997e-01 0.000000e+00 0.000000e+00
1
Step 464000
Ar 7.428644e-01 0.000000e+00 0.000000e+00
1
Step 465000
Ar 7.848440e-01 0.000000e+00 0.000000e+00
1
Step 466000
Ar 9.557770e-01 0.000000e+00 0.000000e+00
1
Step 467000
Ar 1.082913e+00 0.000000e+00 0.000000e+00
1
Step 468000
Ar 8.374507e-01 0.000000e+00 0.000000e+00
1
Step 469000
Ar 8.765532e-01 0.000000e+00 0.000000e+00
1
Step 470000
Ar 9.061656e-01 0.000000e+00 0.000000e+00
1
Step 471000
Ar 9.059160e-01 0.000000e+00 0.000000e+00
1
Step 472000
Ar 9.012562e-01 0.000000e+00 0.000000e+00
1
Step 473000
Ar 9.035483e-01 0.000000e+00 0.000000e+00
1
Step 474000
Ar 9.924996e-01 0.000000e+00 0.000000e+00
1
Step 475000
Ar 1.007641e+00 0.000000e+00 0.000000e+00
1
Step 476000
Ar 9.893974e-01 0.000000e+00 0.000000e+00
1
Step 477000
Ar 7.863335e-01 0.000000e+00 0.000000e+00
1
Step 478000
Ar 9.999867e-01 0.000000e+00 0.000000e+00
1
Step 479000
Ar 1.005974e+00 0.000000e+00 0.000000e+00
1
Step 480000
Ar 1.067648e+00 0.000000e+00 0.000000e+00
1
Step 481000
Ar 1.059304e+00 0.000000e+00 0.000000e+00
1
Step 482000
Ar 1.165664e+00 0.000000e+00 0.000000e+00
1
Step 483000
Ar 1.189351e+00 0.000000e+00 0.000000e+00
1
Step 484000
Ar 1.204315e+00 0.000000e+00 0.000000e+00
1
Step 485000
Ar 1.235302e+00 0.000000e+00 0.000000e+00
1
Step 486000
Ar 1.236219e+00 0.000000e+00 0.000000e+00
1
Step 487000
Ar 1.239577e+00 0.000000e+00 0.000000e+00
1
Step 488000
Ar 1.301898e+00 0.000000e+00 0.000000e+00
1
Step 489000
Ar 1.122488e+00 0.000000e+00 0.000000e+00
1
Step 490000
Ar 1.081576e+00 0.000000e+00 0.000000e+00
1
Step 491000
Ar 8.538939e-01 0.000000e+00 0.000000e+00
1
Step 492000
Ar 8.519095e-01 0.000000e+00 0.000000e+00
1
Step 493000
Ar 8.545493e-01 0.000000e+00 0.000000e+00
1
Step 494000
Ar 8.955673e-01 0.000000e+00 0.000000e+00
1
Step 495000
Ar 9.104169e-01 0.000000e+00 0.000000e+00
1
Step 496000
Ar 1.039039e+00 0.000000e+00 0.000000e+00
1
Step 497000
Ar 1.003799e+00 0.000000e+00 0.000000e+00
1
Step 498000
Ar 9.292394e-01 0.000000e+00 0.000000e+00
1
Step 499000
Ar 1.007951e+00 0.000000e+00 0.000000e+00
1
Step 500000
Ar 1.147546e+00 0.000000e+00 0.000000e+00
1
Step 501000
Ar 1.389856e+00 0.000000e+00 0.000000e+00
1
Step 502000
Ar 1.348422e+00 0.000000e+00 0.000000e+00
1
Step 503000
Ar 1.366897e+00 0.000000e+00 0.000000e+00
1
Step 504000
Ar 1.396317e+00 0.000000e+00 0.000000e+00
1
Step 505000
Ar 1.393069e+00 0.000000e+00 0.000000e+00
1
Step 506000
Ar 1.391529e+00 0.000000e+00 0.000000e+00
1
Step 507000
Ar 1.414067e+00 0.000000e+00 0.000000e+00
1
Step 508000
Ar 1.437532e+00 0.000000e+00 0.000000e+00
1
Step 509000
Ar 1.435127e+00 0.000000e+00 0.000000e+00
1
Step 510000
Ar 1.456006e+00 0.000000e+00 0.000000e+00
1
Step 511000
Ar 1.521365e+00 0.000000e+00 0.000000e+00
1
Step 512000
Ar 1.487975e+00 0.000000e+00 0.000000e+00
1
Step 513000
Ar 1.563128e+00 0.000000e+00 0.000000e+00
1
Step 514000
Ar 1.560783e+00 0.000000e+00 0.000000e+00
1
Step 515000
Ar 1.551880e+00 0.000000e+00 0.000000e+00
1
Step 516000
Ar 1.560402e+00 0.000000e+00 0.000000e+00
1
Step 517000
Ar 1.370733e+00 0.000000e+00 0.000000e+00
1
Step 518000
Ar 1.199275e+00 0.000000e+00 0.000000e+00
1
Step 519000
Ar 1.203869e+00 0.000000e+00 0.000000e+00
1
Step 520000
Ar 1.224261e+00 0.000000e+00 0.000000e+00
1
Step 521000
Ar 1.308098e+00 0.000000e+00 0.000000e+00
1
Step 522000
Ar 1.307720e+00 0.000000e+00 0.000000e+00
1
Step 523000
Ar 1.270125e+00 0.000000e+00 0.000000e+00
1
Step 524000
Ar 1.159851e+00 0.000000e+00 0.000000e+00
1
Step 525000
Ar 1.278543e+00 0.000000e+00 0.000000e+00
1
Step 526000
Ar 1.258948e+00 0.000000e+00 0.000000e+00
1
Step 527000
Ar 1.266676e+00 0.000000e+00 0.000000e+00
1
Step 528000
Ar 1.261719e+00 0.000000e+00 0.000000e+00
1
Step 529000
Ar 1.260651e+00 0.000000e+00 0.000000e+00
1
Step 530000
Ar 1.258595e+00 0.000000e+00 0.000000e+00
1
Step 531000
Ar 1.260866e+00 0.000000e+00 0.000000e+00
1
Step 532000
Ar 1.266247e+00 0.000000e+00 0.000000e+00
1
Step 533000
Ar 1.299780e+00 0.000000e+00 0.000000e+00
1
Step 534000
Ar 1.243737e+00 0.000000e+00 0.000000e+00
1
Step 535000
Ar 8.947281e-01 0.000000e+00 0.000000e+00
1
Step 536000
Ar 9.113275e-01 0.000000e+00 0.000000e+00
1
Step 537000
Ar 9.223616e-01 0.000000e+00 0.000000e+00
1
Step 538000
Ar 8.802725e-01 0.000000e+00 0.000000e+00
1
Step 539000
Ar 9.924718e-01 0.000000e+00 0.000000e+00
1
Step 540000
Ar 9.967459e-01 0.000000e+00 0.000000e+00
1
Step 541000
Ar 8.939634e-01 0.000000e+00 0.000000e+00
1
Step 542000
Ar 9.356206e-01 0.000000e+00 0.000000e+00
1
Step 543000
Ar 9.531937e-01 0.000000e+00 0.000000e+00
1
Step 544000
Ar 9.597282e-01 0.000000e+00 0.000000e+00
1
Step 545000
Ar 1.047487e+00 0.000000e+00 0.000000e+00
1
Step 546000
Ar 1.020188e+00 0.000000e+00 0.000000e+00
1
Step 547000
Ar 1.054067e+00 0.000000e+00 0.000000e+00
1
Step 548000
Ar 1.049191e+00 0.000000e+00 0.000000e+00
1
Step 549000
Ar 1.111949e+00 0.000000e+00 0.000000e+00
1
Step 550000
Ar 1.088383e+00 0.000000e+00 0.000000e+00
1
Step 551000
Ar 1.083246e+00 0.000000e+00 0.000000e+00
1
Step 552000
Ar 1.127826e+00 0.000000e+00 0.000000e+00
1
Step 553000
Ar 1.101134e+00 0.000000e+00 0.000000e+00
1
Step 554000
Ar 1.115319e+00 0.000000e+00 0.000000e+00
1
Step 555000
Ar 1.144572e+00 0.000000e+00 0.000000e+00
1
Step 556000
Ar 1.111342e+00 0.000000e+00 0.000000e+00
1
Step 557000
Ar 9.473134e-01 0.000000e+00 0.000000e+00
1
Step 558000
Ar 9.646543e-01 0.000000e+00 0.000000e+00
1
Step 559000
Ar 5.633155e-01 0.000000e+00 0.000000e+00
1
Step 560000
Ar 5.795488e-01 0.000000e+00 0.000000e+00
1
Step 561000
Ar 4.900232e-01 0.000000e+00 0.000000e+00
1
Step 562000
Ar 4.773914e-01 0.000000e+00 0.000000e+00
1
Step 563000
Ar 4.582575e-01 0.000000e+00 0.000000e+00
1
Step 564000
Ar 4.515655e-01 0.000000e+00 0.000000e+00
1
Step 565000
Ar 3.987281e-01 0.000000e+00 0.000000e+00
1
Step 566000
Ar 5.277340e-01 0.000000e+00 0.000000e+00
1
Step 567000
Ar 4.668615e-01 0.000000e+00 0.000000e+00
1
Step 568000
Ar 6.224354e-01 0.000000e+00 0.000000e+00
1
Step 569000
Ar 5.734582e-01 0.000000e+00 0.000000e+00
1
Step 570000
Ar 5.736677e-01 0.000000e+00 0.000000e+00
1
Step 571000
Ar 4.970614e-01 0.000000e+00 0.000000e+00
1
Step 572000
Ar 5.613396e-01 0.000000e+00 0.000000e+00
1
Step 573000
Ar 6.515425e-01 0.000000e+00 0.000000e+00
1
Step 574000
Ar 8.664889e-01 0.000000e+00 0.000000e+00
1
Step 575000
Ar 8.105720e-01 0.000000e+00 0.000000e+00
1
Step 576000
Ar 8.076944e-01 0.000000e+00 0.000000e+00
1
Step 577000
Ar 7.854111e-01 0.000000e+00 0.000000e+00
1
Step 578000
Ar 7.894805e-01 0.000000e+00 0.000000e+00
1
Step 579000
Ar 7.719895e-01 0.000000e+00 0.000000e+00
1
Step 580000
Ar 8.558690e-01 0.000000e+00 0.000000e+00
1
Step 581000
Ar 8.066739e-01 0.000000e+00 0.000000e+00
1
Step 582000
Ar 6.472455e-01 0.000000e+00 0.000000e+00
1
Step 583000
Ar 4.971187e-01 0.000000e+00 0.000000e+00
1
Step 584000
Ar 5.795079e-01 0.000000e+00 0.000000e+00
1
Step 585000
Ar 4.092991e-01 0.000000e+00 0.000000e+00
1
Step 586000
Ar 4.505172e-01 0.000000e+00 0.000000e+00
1
Step 587000
Ar 2.584178e-01 0.000000e+00 0.000000e+00
1
Step 588000
Ar 2.207405e-01 0.000000e+00 0.000000e+00
1
Step 589000
Ar -1.046160e-01 0.000000e+00 0.000000e+00
1
Step 590000
Ar -1.064538e-01 0.000000e+00 0.000000e+00
1
Step 591000
Ar -3.908843e-04 0.000000e+00 0.000000e+00
1
Step 592000
Ar 1.178220e-02 0.000000e+00 0.000000e+00
1
Step 593000
Ar -1.263176e-01 0.000000e+00 0.000000e+00
1
Step 594000
Ar -2.322838e-01 0.000000e+00 0.000000e+00
1
Step 595000
Ar -2.322001e-01 0.000000e+00 0.000000e+00
1
Step 596000
Ar -3.125974e-01 0.000000e+00 0.000000e+00
1
Step 597000
Ar -2.387582e-01 0.000000e+00 0.000000e+00
1
Step 598000
Ar -2.446160e-01 0.000000e+00 0.000000e+00
1
Step 599000
Ar -9.045770e-02 0.000000e+00 0.000000e+00
1
Step 600000
Ar -7.022594e-02 0.000000e+00 0.000000e+00
1
Step 601000
Ar -3.152957e-02 0.000000e+00 0.000000e+00
1
Step 602000
Ar 2.657450e-01 0.000000e+00 0.000000e+00
1
Step 603000
Ar 3.394709e-01 0.000000e+00 0.000000e+00
1
Step 604000
Ar 1.999176e-01 0.000000e+00 0.000000e+00
1
Step 605000
Ar 3.125761e-01 0.000000e+00 0.000000e+00
1
Step 606000
Ar 1.304190e-01 0.000000e+00 0.000000e+00
1
Step 607000
Ar 1.479435e-01 0.000000e+00 0.000000e+00
1
Step 608000
Ar 1.135963e-01 0.000000e+00 0.000000e+00
1
Step 609000
Ar 1.021766e-01 0.000000e+00 0.000000e+00
1
Step 610000
Ar -8.240654e-04 0.000000e+00 0.000000e+00
1
Step 611000
Ar 1.192291e-01 0.000000e+00 0.000000e+00
1
Step 612000
Ar 1.284881e-01 0.000000e+00 0.000000e+00
1
Step 613000
Ar 7.699727e-02 0.000000e+00 0.000000e+00
1
Step 614000
Ar -1.520473e-01 0.000000e+00 0.000000e+00
1
Step 615000
Ar -8.772649e-02 0.000000e+00 0.000000e+00
1
Step 616000
Ar -1.789515e-01 0.000000e+00 0.000000e+00
1
Step 617000
Ar -1.676521e-01 0.000000e+00 0.000000e+00
1
Step 618000
Ar -8.108268e-02 0.000000e+00 0.000000e+00
1
Step 619000
Ar -8.893855e-02 0.000000e+00 0.000000e+00
1
Step 620000
Ar -3.247277e-01 0.000000e+00 0.000000e+00
1
Step 621000
Ar -5.586880e-01 0.000000e+00 0.000000e+00
1
Step 622000
Ar -4.565917e-01 0.000000e+00 0.000000e+00
1
Step 623000
Ar -4.759919e-01 0.000000e+00 0.000000e+00
1
Step 624000
Ar -4.803824e-01 0.000000e+00 0.000000e+00
1
Step 625000
Ar -4.742243e-01 0.000000e+00 0.000000e+00
1
Step 626000
Ar -4.810007e-01 0.000000e+00 0.000000e+00
1
Step 627000
Ar -4.546535e-01 0.000000e+00 0.000000e+00
1
Step 628000
Ar -4.268706e-01 0.000000e+00 0.000000e+00
1
Step 629000
Ar -3.787709e-01 0.000000e+00 0.000000e+00
1
Step 630000
Ar -3.491620e-01 0.000000e+00 0.000000e+00
1
Step 631000
Ar -3.520149e-01 0.000000e+00 0.000000e+00
1
Step 632000
Ar -3.527798e-01 0.000000e+00 0.000000e+00
1
Step 633000
Ar -3.556248e-01 0.000000e+00 0.000000e+00
1
Step 634000
Ar -3.912301e-01 0.000000e+00 0.000000e+00
1
Step 635000
Ar -3.725690e-01 0.000000e+00 0.000000e+00
1
Step 636000
Ar -3.742821e-01 0.000000e+00 0.000000e+00
1
Step 637000
Ar -1.965221e-01 0.000000e+00 0.000000e+00
1
Step 638000
Ar -1.645703e-01 0.000000e+00 0.000000e+00
1
Step 639000
Ar 1.170437e-01 0.000000e+00 0.000000e+00
1
Step 640000
Ar 1.210987e-01 0.000000e+00 0.000000e+00
1
Step 641000
Ar 1.203289e-01 0.000000e+00 0.000000e+00
1
Step 642000
Ar 2.158966e-01 0.000000e+00 0.000000e+00
1
Step 643000
Ar 1.944636e-01 0.000000e+00 0.000000e+00
1
Step 644000
Ar 1.927754e-01 0.000000e+00 0.000000e+00
1
Step 645000
Ar 2.641397e-01 0.000000e+00 0.000000e+00
1
Step 646000
Ar 5.833166e-01 0.000000e+00 0.000000e+00
1
Step 647000
Ar 5.787435e-01 0.000000e+00 0.000000e+00
1
Step 648000
Ar 4.665640e-01 0.000000e+00 0.000000e+00
1
Step 649000
Ar 4.697696e-01 0.000000e+00 0.000000e+00
1
Step 650000
Ar 3.874181e-01 0.000000e+00 0.000000e+00
1