1
Step 120000
Ar 9.979195e-01 0.000000e+00 0.000000e+00
1
Step 121000
Ar 9.930691e-01 0.000000e+00 0.000000e+00
1
Step 122000
Ar 1.013275e+00 0.000000e+00 0.000000e+00
1
Step 123000
Ar 1.021761e+00 0.000000e+00 0.000000e+00
1
Step 124000
Ar 9.961870e-01 0.000000e+00 0.000000e+00
1
Step 125000
Ar 9.967504e-01 0.000000e+00 0.000000e+00
1
Step 126000
Ar 1.022463e+00 0.000000e+00 0.000000e+00
1
Step 127000
Ar 1.022285e+00 0.000000e+00 0.000000e+00
1
Step 128000
Ar 1.013457e+00 0.000000e+00 0.000000e+00
1
Step 129000
Ar 1.017542e+00 0.000000e+00 0.000000e+00
1
Step 130000
Ar 1.018926e+00 0.000000e+00 0.000000e+00
1
Step 131000
Ar 9.799423e-01 0.000000e+00 0.000000e+00
1
Step 132000
Ar 9.736782e-01 0.000000e+00 0.000000e+00
1
Step 133000
Ar 9.757569e-01 0.000000e+00 0.000000e+00
1
Step 134000
Ar 9.760204e-01 0.000000e+00 0.000000e+00
1
Step 135000
Ar 9.852327e-01 0.000000e+00 0.000000e+00
1
Step 136000
Ar 9.728074e-01 0.000000e+00 0.000000e+00
1
Step 137000
Ar 9.714017e-01 0.000000e+00 0.000000e+00
1
Step 138000
Ar 9.660097e-01 0.000000e+00 0.000000e+00
1
Step 139000
Ar 9.677259e-01 0.000000e+00 0.000000e+00
1
Step 140000
Ar 9.757905e-01 0.000000e+00 0.000000e+00
1
Step 141000
Ar 9.612920e-01 0.000000e+00 0.000000e+00
1
Step 142000
Ar 9.629689e-01 0.000000e+00 0.000000e+00
1
Step 143000
Ar 9.628021e-01 0.000000e+00 0.000000e+00
1
Step 144000
Ar 9.614694e-01 0.000000e+00 0.000000e+00
1
Step 145000
Ar 9.664882e-01 0.000000e+00 0.000000e+00
1
Step 146000
Ar 9.535202e-01 0.000000e+00 0.000000e+00
1
Step 147000
Ar 9.517650e-01 0.000000e+00 0.000000e+00
1
Step 148000
Ar 9.567343e-01 0.000000e+00 0.000000e+00
1
Step 149000
Ar 9.498147e-01 0.000000e+00 0.000000e+00
1
Step 150000
Ar 9.461041e-01 0.000000e+00 0.000000e+00
1
Step 151000
Ar 1.004420e+00 0.000000e+00 0.000000e+00
1
Step 152000
Ar 1.008018e+00 0.000000e+00 0.000000e+00
1
Step 153000
Ar 1.006625e+00 0.000000e+00 0.000000e+00
1
Step 154000
Ar 1.007710e+00 0.000000e+00 0.000000e+00
1
Step 155000
Ar 1.007829e+00 0.000000e+00 0.000000e+00
1
Step 156000
Ar 1.027927e+00 0.000000e+00 0.000000e+00
1
Step 157000
Ar 1.037810e+00 0.000000e+00 0.000000e+00
1
Step 158000
Ar 1.029477e+00 0.000000e+00 0.000000e+00
1
Step 159000
Ar 1.034275e+00 0.000000e+00 0.000000e+00
1
Step 160000
Ar 1.029127e+00 0.000000e+00 0.000000e+00
1
Step 161000
Ar 1.051495e+00 0.000000e+00 0.000000e+00
1
Step 162000
Ar 1.040082e+00 0.000000e+00 0.000000e+00
1
Step 163000
Ar 1.042082e+00 0.000000e+00 0.000000e+00
1
Step 164000
Ar 1.041991e+00 0.000000e+00 0.000000e+00
1
Step 165000
Ar 1.045625e+00 0.000000e+00 0.000000e+00
1
Step 166000
Ar 1.052104e+00 0.000000e+00 0.000000e+00
1
Step 167000
Ar 9.550851e-01 0.000000e+00 0.000000e+00
1
Step 168000
Ar 9.577061e-01 0.000000e+00 0.000000e+00
1
Step 169000
Ar 9.566633e-01 0.000000e+00 0.000000e+00
1
Step 170000
Ar 9.602299e-01 0.000000e+00 0.000000e+00
1
Step 171000
Ar 1.011755e+00 0.000000e+00 0.000000e+00
1
Step 172000
Ar 1.057260e+00 0.000000e+00 0.000000e+00
1
Step 173000
Ar 1.059248e+00 0.000000e+00 0.000000e+00
1
Step 174000
Ar 1.062990e+00 0.000000e+00 0.000000e+00
1
Step 175000
Ar 9.285787e-01 0.000000e+00 0.000000e+00
1
Step 176000
Ar 1.002969e+00 0.000000e+00 0.000000e+00
1
Step 177000
Ar 1.003119e+00 0.000000e+00 0.000000e+00
1
Step 178000
Ar 9.915214e-01 0.000000e+00 0.000000e+00
1
Step 179000
Ar 9.952621e-01 0.000000e+00 0.000000e+00
1
Step 180000
Ar 1.014670e+00 0.000000e+00 0.000000e+00
1
Step 181000
Ar 9.936548e-01 0.000000e+00 0.000000e+00
1
Step 182000
Ar 1.001055e+00 0.000000e+00 0.000000e+00
1
Step 183000
Ar 1.000164e+00 0.000000e+00 0.000000e+00
1
Step 184000
Ar 9.949304e-01 0.000000e+00 0.000000e+00
1
Step 185000
Ar 9.947080e-01 0.000000e+00 0.000000e+00
1
Step 186000
Ar 9.102911e-01 0.000000e+00 0.000000e+00
1
Step 187000
Ar 1.055309e+00 0.000000e+00 0.000000e+00
1
Step 188000
Ar 1.056385e+00 0.000000e+00 0.000000e+00
1
Step 189000
Ar 1.037519e+00 0.000000e+00 0.000000e+00
1
Step 190000
Ar 1.039273e+00 0.000000e+00 0.000000e+00
1
Step 191000
Ar 9.867924e-01 0.000000e+00 0.000000e+00
1
Step 192000
Ar 9.805098e-01 0.000000e+00 0.000000e+00
1
Step 193000
Ar 9.810833e-01 0.000000e+00 0.000000e+00
1
Step 194000
Ar 9.804637e-01 0.000000e+00 0.000000e+00
1
Step 195000
Ar 9.780545e-01 0.000000e+00 0.000000e+00
1
Step 196000
Ar 1.057470e+00 0.000000e+00 0.000000e+00
1
Step 197000
Ar 1.057063e+00 0.000000e+00 0.000000e+00
1
Step 198000
Ar 1.058270e+00 0.000000e+00 0.000000e+00
1
Step 199000
Ar 1.060258e+00 0.000000e+00 0.000000e+00
1
Step 200000
Ar 1.056078e+00 0.000000e+00 0.000000e+00
1
Step 201000
Ar 1.063501e+00 0.000000e+00 0.000000e+00
1
Step 202000
Ar 1.067507e+00 0.000000e+00 0.000000e+00
1
Step 203000
Ar 1.068832e+00 0.000000e+00 0.000000e+00
1
Step 204000
Ar 1.068193e+00 0.000000e+00 0.000000e+00
1
Step 205000
Ar 1.066511e+00 0.000000e+00 0.000000e+00
1
Step 206000
Ar 9.888864e-01 0.000000e+00 0.000000e+00
1
Step 207000
Ar 9.163240e-01 0.000000e+00 0.000000e+00
1
Step 208000
Ar 9.157471e-01 0.000000e+00 0.000000e+00
1
Step 209000
Ar 9.151120e-01 0.000000e+00 0.000000e+00
1
Step 210000
Ar 9.175701e-01 0.000000e+00 0.000000e+00
1
Step 211000
Ar 1.033304e+00 0.000000e+00 0.000000e+00
1
Step 212000
Ar 1.031092e+00 0.000000e+00 0.000000e+00
1
Step 213000
Ar 1.030940e+00 0.000000e+00 0.000000e+00
1
Step 214000
Ar 1.029182e+00 0.000000e+00 0.000000e+00
1
Step 215000
Ar 1.029357e+00 0.000000e+00 0.000000e+00
1
Step 216000
Ar 1.049400e+00 0.000000e+00 0.000000e+00
1
Step 217000
Ar 9.521656e-01 0.000000e+00 0.000000e+00
1
Step 218000
Ar 9.378083e-01 0.000000e+00 0.000000e+00
1
Step 219000
Ar 9.384876e-01 0.000000e+00 0.000000e+00
1
Step 220000
Ar 1.007969e+00 0.000000e+00 0.000000e+00
1
Step 221000
Ar 9.054034e-01 0.000000e+00 0.000000e+00
1
Step 222000
Ar 9.027515e-01 0.000000e+00 0.000000e+00
1
Step 223000
Ar 9.052977e-01 0.000000e+00 0.000000e+00
1
Step 224000
Ar 9.039705e-01 0.000000e+00 0.000000e+00
1
Step 225000
Ar 9.080285e-01 0.000000e+00 0.000000e+00
1
Step 226000
Ar 8.934987e-01 0.000000e+00 0.000000e+00
1
Step 227000
Ar 8.944713e-01 0.000000e+00 0.000000e+00
1
Step 228000
Ar 8.974453e-01 0.000000e+00 0.000000e+00
1
Step 229000
Ar 9.006845e-01 0.000000e+00 0.000000e+00
1
Step 230000
Ar 9.003228e-01 0.000000e+00 0.000000e+00
1
Step 231000
Ar 1.072245e+00 0.000000e+00 0.000000e+00
1
Step 232000
Ar 1.077219e+00 0.000000e+00 0.000000e+00
1
Step 233000
Ar 1.079680e+00 0.000000e+00 0.000000e+00
1
Step 234000
Ar 1.042662e+00 0.000000e+00 0.000000e+00
1
Step 235000
Ar 1.055217e+00 0.000000e+00 0.000000e+00
1
Step 236000
Ar 1.100673e+00 0.000000e+00 0.000000e+00
1
Step 237000
Ar 9.385486e-01 0.000000e+00 0.000000e+00
1
Step 238000
Ar 8.238514e-01 0.000000e+00 0.000000e+00
1
Step 239000
Ar 9.483404e-01 0.000000e+00 0.000000e+00
1
Step 240000
Ar 1.038553e+00 0.000000e+00 0.000000e+00
1
Step 241000
Ar 1.077150e+00 0.000000e+00 0.000000e+00
1
Step 242000
Ar 1.075813e+00 0.000000e+00 0.000000e+00
1
Step 243000
Ar 1.077145e+00 0.000000e+00 0.000000e+00
1
Step 244000
Ar 1.073968e+00 0.000000e+00 0.000000e+00
1
Step 245000
Ar 1.075233e+00 0.000000e+00 0.000000e+00
1
Step 246000
Ar 9.406688e-01 0.000000e+00 0.000000e+00
1
Step 247000
Ar 1.022573e+00 0.000000e+00 0.000000e+00
1
Step 248000
Ar 8.875829e-01 0.000000e+00 0.000000e+00
1
Step 249000
Ar 8.900722e-01 0.000000e+00 0.000000e+00
1
Step 250000
Ar 8.882275e-01 0.000000e+00 0.000000e+00
1
Step 251000
Ar 9.387247e-01 0.000000e+00 0.000000e+00
1
Step 252000
Ar 9.527375e-01 0.000000e+00 0.000000e+00
1
Step 253000
Ar 9.157180e-01 0.000000e+00 0.000000e+00
1
Step 254000
Ar 9.068947e-01 0.000000e+00 0.000000e+00
1
Step 255000
Ar 9.544048e-01 0.000000e+00 0.000000e+00
1
Step 256000
Ar 9.922185e-01 0.000000e+00 0.000000e+00
1
Step 257000
Ar 1.143772e+00 0.000000e+00 0.000000e+00
1
Step 258000
Ar 9.884828e-01 0.000000e+00 0.000000e+00
1
Step 259000
Ar 1.023471e+00 0.000000e+00 0.000000e+00
1
Step 260000
Ar 9.897497e-01 0.000000e+00 0.000000e+00
1
Step 261000
Ar 1.088130e+00 0.000000e+00 0.000000e+00
1
Step 262000
Ar 1.081979e+00 0.000000e+00 0.000000e+00
1
Step 263000
Ar 1.085834e+00 0.000000e+00 0.000000e+00
1
Step 264000
Ar 1.010231e+00 0.000000e+00 0.000000e+00
1
Step 265000
Ar 9.130958e-01 0.000000e+00 0.000000e+00
1
Step 266000
Ar 9.694807e-01 0.000000e+00 0.000000e+00
1
Step 267000
Ar 9.704067e-01 0.000000e+00 0.000000e+00
1
Step 268000
Ar 9.719938e-01 0.000000e+00 0.000000e+00
1
Step 269000
Ar 1.028120e+00 0.000000e+00 0.000000e+00
1
Step 270000
Ar 9.384522e-01 0.000000e+00 0.000000e+00
1
Step 271000
Ar 9.704488e-01 0.000000e+00 0.000000e+00
1
Step 272000
Ar 9.661436e-01 0.000000e+00 0.000000e+00
1
Step 273000
Ar 9.728538e-01 0.000000e+00 0.000000e+00
1
Step 274000
Ar 9.508886e-01 0.000000e+00 0.000000e+00
1
Step 275000
Ar 9.713522e-01 0.000000e+00 0.000000e+00
1
Step 276000
Ar 9.507750e-01 0.000000e+00 0.000000e+00
1
Step 277000
Ar 9.529573e-01 0.000000e+00 0.000000e+00
1
Step 278000
Ar 9.484453e-01 0.000000e+00 0.000000e+00
1
Step 279000
Ar 9.469147e-01 0.000000e+00 0.000000e+00
1
Step 280000
Ar 9.473285e-01 0.000000e+00 0.000000e+00
1
Step 281000
Ar 1.060391e+00 0.000000e+00 0.000000e+00
1
Step 282000
Ar 9.385030e-01 0.000000e+00 0.000000e+00
1
Step 283000
Ar 9.331881e-01 0.000000e+00 0.000000e+00
1
Step 284000
Ar 9.896337e-01 0.000000e+00 0.000000e+00
1
Step 285000
Ar 1.086231e+00 0.000000e+00 0.000000e+00
1
Step 286000
Ar 1.060214e+00 0.000000e+00 0.000000e+00
1
Step 287000
Ar 1.061487e+00 0.000000e+00 0.000000e+00
1
Step 288000
Ar 9.239405e-01 0.000000e+00 0.000000e+00
1
Step 289000
Ar 9.606344e-01 0.000000e+00 0.000000e+00
1
Step 290000
Ar 9.615229e-01 0.000000e+00 0.000000e+00
1
Step 291000
Ar 9.392303e-01 0.000000e+00 0.000000e+00
1
Step 292000
Ar 9.322464e-01 0.000000e+00 0.000000e+00
1
Step 293000
Ar 9.342573e-01 0.000000e+00 0.000000e+00
1
Step 294000
Ar 9.306082e-01 0.000000e+00 0.000000e+00
1
Step 295000
Ar 9.370338e-01 0.000000e+00 0.000000e+00
1
Step 296000
Ar 8.860015e-01 0.000000e+00 0.000000e+00
1
Step 297000
Ar 8.810478e-01 0.000000e+00 0.000000e+00
1
Step 298000
Ar 8.801327e-01 0.000000e+00 0.000000e+00
1
Step 299000
Ar 8.764087e-01 0.000000e+00 0.000000e+00
1
Step 300000
Ar 9.394826e-01 0.000000e+00 0.000000e+00
1
Step 301000
Ar 9.693814e-01 0.000000e+00 0.000000e+00
1
Step 302000
Ar 1.054209e+00 0.000000e+00 0.000000e+00
1
Step 303000
Ar 8.978068e-01 0.000000e+00 0.000000e+00
1
Step 304000
Ar 9.229033e-01 0.000000e+00 0.000000e+00
1
Step 305000
Ar 9.235436e-01 0.000000e+00 0.000000e+00
1
Step 306000
Ar 9.741215e-01 0.000000e+00 0.000000e+00
1
Step 307000
Ar 1.083466e+00 0.000000e+00 0.000000e+00
1
Step 308000
Ar 8.963307e-01 0.000000e+00 0.000000e+00
1
Step 309000
Ar 8.996906e-01 0.000000e+00 0.000000e+00
1
Step 310000
Ar 8.917831e-01 0.000000e+00 0.000000e+00
1
Step 311000
Ar 8.136532e-01 0.000000e+00 0.000000e+00
1
Step 312000
Ar 1.012449e+00 0.000000e+00 0.000000e+00
1
Step 313000
Ar 1.077709e+00 0.000000e+00 0.000000e+00
1
Step 314000
Ar 1.118792e+00 0.000000e+00 0.000000e+00
1
Step 315000
Ar 7.901096e-01 0.000000e+00 0.000000e+00
1
Step 316000
Ar 1.024250e+00 0.000000e+00 0.000000e+00
1
Step 317000
Ar 8.764249e-01 0.000000e+00 0.000000e+00
1
Step 318000
Ar 8.788852e-01 0.000000e+00 0.000000e+00
1
Step 319000
Ar 8.762131e-01 0.000000e+00 0.000000e+00
1
Step 320000
Ar 8.832755e-01 0.000000e+00 0.000000e+00
1
Step 321000
Ar 1.006053e+00 0.000000e+00 0.000000e+00
1
Step 322000
Ar 9.701801e-01 0.000000e+00 0.000000e+00
1
Step 323000
Ar 1.158816e+00 0.000000e+00 0.000000e+00
1
Step 324000
Ar 1.050461e+00 0.000000e+00 0.000000e+00
1
Step 325000
Ar 1.021087e+00 0.000000e+00 0.000000e+00
1
Step 326000
Ar 9.680222e-01 0.000000e+00 0.000000e+00
1
Step 327000
Ar 1.006083e+00 0.000000e+00 0.000000e+00
1
Step 328000
Ar 9.659835e-01 0.000000e+00 0.000000e+00
1
Step 329000
Ar 1.055571e+00 0.000000e+00 0.000000e+00
1
Step 330000
Ar 9.829399e-01 0.000000e+00 0.000000e+00
1
Step 331000
Ar 1.097929e+00 0.000000e+00 0.000000e+00
1
Step 332000
Ar 9.303539e-01 0.000000e+00 0.000000e+00
1
Step 333000
Ar 9.279762e-01 0.000000e+00 0.000000e+00
1
Step 334000
Ar 8.703399e-01 0.000000e+00 0.000000e+00
1
Step 335000
Ar 8.707284e-01 0.000000e+00 0.000000e+00
1
Step 336000
Ar 1.024058e+00 0.000000e+00 0.000000e+00
1
Step 337000
Ar 1.009497e+00 0.000000e+00 0.000000e+00
1
Step 338000
Ar 1.036049e+00 0.000000e+00 0.000000e+00
1
Step 339000
Ar 1.065435e+00 0.000000e+00 0.000000e+00
1
Step 340000
Ar 1.063341e+00 0.000000e+00 0.000000e+00
1
Step 341000
Ar 9.857077e-01 0.000000e+00 0.000000e+00
1
Step 342000
Ar 1.077099e+00 0.000000e+00 0.000000e+00
1
Step 343000
Ar 1.078108e+00 0.000000e+00 0.000000e+00
1
Step 344000
Ar 1.077790e+00 0.000000e+00 0.000000e+00
1
Step 345000
Ar 9.279328e-01 0.000000e+00 0.000000e+00
1
Step 346000
Ar 9.188460e-01 0.000000e+00 0.000000e+00
1
Step 347000
Ar 1.095010e+00 0.000000e+00 0.000000e+00
1
Step 348000
Ar 9.973392e-01 0.000000e+00 0.000000e+00
1
Step 349000
Ar 1.073085e+00 0.000000e+00 0.000000e+00
1
Step 350000
Ar 1.078480e+00 0.000000e+00 0.000000e+00
1
Step 351000
Ar 9.352931e-01 0.000000e+00 0.000000e+00
1
Step 352000
Ar 9.609936e-01 0.000000e+00 0.000000e+00
1
Step 353000
Ar 1.004860e+00 0.000000e+00 0.000000e+00
1
Step 354000
Ar 1.022979e+00 0.000000e+00 0.000000e+00
1
Step 355000
Ar 1.016285e+00 0.000000e+00 0.000000e+00
1
Step 356000
Ar 1.097179e+00 0.000000e+00 0.000000e+00
1
Step 357000
Ar 1.093732e+00 0.000000e+00 0.000000e+00
1
Step 358000
Ar 1.095020e+00 0.000000e+00 0.000000e+00
1
Step 359000
Ar 1.093567e+00 0.000000e+00 0.000000e+00
1
Step 360000
Ar 1.092851e+00 0.000000e+00 0.000000e+00
1
Step 361000
Ar 1.102222e+00 0.000000e+00 0.000000e+00
1
Step 362000
Ar 1.107206e+00 0.000000e+00 0.000000e+00
1
Step 363000
Ar 9.668345e-01 0.000000e+00 0.000000e+00
1
Step 364000
Ar 9.698171e-01 0.000000e+00 0.000000e+00
1
Step 365000
Ar 9.683556e-01 0.000000e+00 0.000000e+00
1
Step 366000
Ar 9.079808e-01 0.000000e+00 0.000000e+00
1
Step 367000
Ar 9.604536e-01 0.000000e+00 0.000000e+00
1
Step 368000
Ar 9.068556e-01 0.000000e+00 0.000000e+00
1
Step 369000
Ar 9.209243e-01 0.000000e+00 0.000000e+00
1
Step 370000
Ar 1.016413e+00 0.000000e+00 0.000000e+00
1
Step 371000
Ar 7.727438e-01 0.000000e+00 0.000000e+00
1
Step 372000
Ar 7.946754e-01 0.000000e+00 0.000000e+00
1
Step 373000
Ar 6.461952e-01 0.000000e+00 0.000000e+00
1
Step 374000
Ar 1.017682e+00 0.000000e+00 0.000000e+00
1
Step 375000
Ar 1.030559e+00 0.000000e+00 0.000000e+00
1
Step 376000
Ar 1.012017e+00 0.000000e+00 0.000000e+00
1
Step 377000
Ar 1.132403e+00 0.000000e+00 0.000000e+00
1
Step 378000
Ar 9.155950e-01 0.000000e+00 0.000000e+00
1
Step 379000
Ar 9.544968e-01 0.000000e+00 0.000000e+00
1
Step 380000
Ar 9.000108e-01 0.000000e+00 0.000000e+00
1
Step 381000
Ar 9.322782e-01 0.000000e+00 0.000000e+00
1
Step 382000
Ar 1.033143e+00 0.000000e+00 0.000000e+00
1
Step 383000
Ar 8.739996e-01 0.000000e+00 0.000000e+00
1
Step 384000
Ar 8.768602e-01 0.000000e+00 0.000000e+00
1
Step 385000
Ar 1.102140e+00 0.000000e+00 0.000000e+00
1
Step 386000
Ar 9.902739e-01 0.000000e+00 0.000000e+00
1
Step 387000
Ar 1.099206e+00 0.000000e+00 0.000000e+00
1
Step 388000
Ar 1.010731e+00 0.000000e+00 0.000000e+00
1
Step 389000
Ar 1.073144e+00 0.000000e+00 0.000000e+00
1
Step 390000
Ar 9.517932e-01 0.000000e+00 0.000000e+00
1
Step 391000
Ar 9.195004e-01 0.000000e+00 0.000000e+00
1
Step 392000
Ar 9.319081e-01 0.000000e+00 0.000000e+00
1
Step 393000
Ar 9.470844e-01 0.000000e+00 0.000000e+00
1
Step 394000
Ar 1.072460e+00 0.000000e+00 0.000000e+00
1
Step 395000
Ar 1.029812e+00 0.000000e+00 0.000000e+00
1
Step 396000
Ar 9.286231e-01 0.000000e+00 0.000000e+00
1
Step 397000
Ar 9.206090e-01 0.000000e+00 0.000000e+00
1
Step 398000
Ar 9.342553e-01 0.000000e+00 0.000000e+00
1
Step 399000
Ar 9.167825e-01 0.000000e+00 0.000000e+00
1
Step 400000
Ar 7.548360e-01 0.000000e+00 0.000000e+00
1
Step 401000
Ar 1.047096e+00 0.000000e+00 0.000000e+00
1
Step 402000
Ar 1.051428e+00 0.000000e+00 0.000000e+00
1
Step 403000
Ar 9.247466e-01 0.000000e+00 0.000000e+00
1
Step 404000
Ar 8.807972e-01 0.000000e+00 0.000000e+00
1
Step 405000
Ar 9.021619e-01 0.000000e+00 0.000000e+00
1
Step 406000
Ar 8.766987e-01 0.000000e+00 0.000000e+00
1
Step 407000
Ar 9.339509e-01 0.000000e+00 0.000000e+00
1
Step 408000
Ar 9.669694e-01 0.000000e+00 0.000000e+00
1
Step 409000
Ar 1.034895e+00 0.000000e+00 0.000000e+00
1
Step 410000
Ar 8.737027e-01 0.000000e+00 0.000000e+00
1
Step 411000
Ar 1.044402e+00 0.000000e+00 0.000000e+00
1
Step 412000
Ar 1.050898e+00 0.000000e+00 0.000000e+00
1
Step 413000
Ar 8.734055e-01 0.000000e+00 0.000000e+00
1
Step 414000
Ar 9.574513e-01 0.000000e+00 0.000000e+00
1
Step 415000
Ar 9.375115e-01 0.000000e+00 0.000000e+00
1
Step 416000
Ar 1.067130e+00 0.000000e+00 0.000000e+00
1
Step 417000
Ar 1.050572e+00 0.000000e+00 0.000000e+00
1
Step 418000
Ar 1.108927e+00 0.000000e+00 0.000000e+00
1
Step 419000
Ar 1.107492e+00 0.000000e+00 0.000000e+00
1
Step 420000
Ar 1.061629e+00 0.000000e+00 0.000000e+00
1
Step 421000
Ar 9.209535e-01 0.000000e+00 0.000000e+00
1
Step 422000
Ar 9.186835e-01 0.000000e+00 0.000000e+00
1
Step 423000
Ar 9.217676e-01 0.000000e+00 0.000000e+00
1
Step 424000
Ar 9.201611e-01 0.000000e+00 0.000000e+00
1
Step 425000
Ar 9.221172e-01 0.000000e+00 0.000000e+00
1
Step 426000
Ar 1.046531e+00 0.000000e+00 0.000000e+00
1
Step 427000
Ar 9.045812e-01 0.000000e+00 0.000000e+00
1
Step 428000
Ar 1.048339e+00 0.000000e+00 0.000000e+00
1
Step 429000
Ar 1.105692e+00 0.000000e+00 0.000000e+00
1
Step 430000
Ar 9.103746e-01 0.000000e+00 0.000000e+00
1
Step 431000
Ar 1.122179e+00 0.000000e+00 0.000000e+00
1
Step 432000
Ar 8.608994e-01 0.000000e+00 0.000000e+00
1
Step 433000
Ar 8.598834e-01 0.000000e+00 0.000000e+00
1
Step 434000
Ar 8.584919e-01 0.000000e+00 0.000000e+00
1
Step 435000
Ar 8.617573e-01 0.000000e+00 0.000000e+00
1
Step 436000
Ar 8.540682e-01 0.000000e+00 0.000000e+00
1
Step 437000
Ar 8.513298e-01 0.000000e+00 0.000000e+00
1
Step 438000
Ar 9.222308e-01 0.000000e+00 0.000000e+00
1
Step 439000
Ar 9.789458e-01 0.000000e+00 0.000000e+00
1
Step 440000
Ar 8.242283e-01 0.000000e+00 0.000000e+00
1
Step 441000
Ar 1.127770e+00 0.000000e+00 0.000000e+00
1
Step 442000
Ar 1.080805e+00 0.000000e+00 0.000000e+00
1
Step 443000
Ar 1.011390e+00 0.000000e+00 0.000000e+00
1
Step 444000
Ar 8.525987e-01 0.000000e+00 0.000000e+00
1
Step 445000
Ar 9.809520e-01 0.000000e+00 0.000000e+00
1
Step 446000
Ar 1.053092e+00 0.000000e+00 0.000000e+00
1
Step 447000
Ar 8.501990e-01 0.000000e+00 0.000000e+00
1
Step 448000
Ar 8.524098e-01 0.000000e+00 0.000000e+00
1
Step 449000
Ar 8.509431e-01 0.000000e+00 0.000000e+00
1
Step 450000
Ar 8.483934e-01 0.000000e+00 0.000000e+00
1
Step 451000
Ar 9.563367e-01 0.000000e+00 0.000000e+00
1
Step 452000
Ar 9.689388e-01 0.000000e+00 0.000000e+00
1
Step 453000
Ar 8.822431e-01 0.000000e+00 0.000000e+00
1
Step 454000
Ar 1.039542e+00 0.000000e+00 0.000000e+00
1
Step 455000
Ar 9.237165e-01 0.000000e+00 0.000000e+00
1
Step 456000
Ar 1.047350e+00 0.000000e+00 0.000000e+00
1
Step 457000
Ar 9.010177e-01 0.000000e+00 0.000000e+00
1
Step 458000
Ar 1.018069e+00 0.000000e+00 0.000000e+00
1
Step 459000
Ar 1.047520e+00 0.000000e+00 0.000000e+00
1
Step 460000
Ar 1.045705e+00 0.000000e+00 0.000000e+00
1
Step 461000
Ar 1.123951e+00 0.000000e+00 0.000000e+00
1
Step 462000
Ar 1.048055e+00 0.000000e+00 0.000000e+00
1
Step 463000
Ar 9.614420e-01 0.000000e+00 0.000000e+00
1
Step 464000
Ar 9.039902e-01 0.000000e+00 0.000000e+00
1
Step 465000
Ar 9.916523e-01 0.000000e+00 0.000000e+00
1
Step 466000
Ar 8.597885e-01 0.000000e+00 0.000000e+00
1
Step 467000
Ar 9.539676e-01 0.000000e+00 0.000000e+00
1
Step 468000
Ar 9.601746e-01 0.000000e+00 0.000000e+00
1
Step 469000
Ar 9.553067e-01 0.000000e+00 0.000000e+00
1
Step 470000
Ar 9.715244e-01 0.000000e+00 0.000000e+00
1
Step 471000
Ar 1.070662e+00 0.000000e+00 0.000000e+00
1
Step 472000
Ar 8.409770e-01 0.000000e+00 0.000000e+00
1
Step 473000
Ar 9.947602e-01 0.000000e+00 0.000000e+00
1
Step 474000
Ar 1.050210e+00 0.000000e+00 0.000000e+00
1
Step 475000
Ar 1.281247e+00 0.000000e+00 0.000000e+00
1
Step 476000
Ar 8.758258e-01 0.000000e+00 0.000000e+00
1
Step 477000
Ar 6.607470e-01 0.000000e+00 0.000000e+00
1
Step 478000
Ar 9.569423e-01 0.000000e+00 0.000000e+00
1
Step 479000
Ar 9.560793e-01 0.000000e+00 0.000000e+00
1
Step 480000
Ar 9.573146e-01 0.000000e+00 0.000000e+00
1
Step 481000
Ar 9.478680e-01 0.000000e+00 0.000000e+00
1
Step 482000
Ar 9.528978e-01 0.000000e+00 0.000000e+00
1
Step 483000
Ar 9.505219e-01 0.000000e+00 0.000000e+00
1
Step 484000
Ar 9.507917e-01 0.000000e+00 0.000000e+00
1
Step 485000
Ar 1.068344e+00 0.000000e+00 0.000000e+00
1
Step 486000
Ar 5.647039e-01 0.000000e+00 0.000000e+00
1
Step 487000
Ar 1.092521e+00 0.000000e+00 0.000000e+00
1
Step 488000
Ar 1.075527e+00 0.000000e+00 0.000000e+00
1
Step 489000
Ar 1.086230e+00 0.000000e+00 0.000000e+00
1
Step 490000
Ar 1.081566e+00 0.000000e+00 0.000000e+00
1
Step 491000
Ar 1.097795e+00 0.000000e+00 0.000000e+00
1
Step 492000
Ar 1.106500e+00 0.000000e+00 0.000000e+00
1
Step 493000
Ar 1.110760e+00 0.000000e+00 0.000000e+00
1
Step 494000
Ar 1.092331e+00 0.000000e+00 0.000000e+00
1
Step 495000
Ar 1.108933e+00 0.000000e+00 0.000000e+00
1
Step 496000
Ar 1.090201e+00 0.000000e+00 0.000000e+00
1
Step 497000
Ar 1.094967e+00 0.000000e+00 0.000000e+00
1
Step 498000
Ar 1.092661e+00 0.000000e+00 0.000000e+00
1
Step 499000
Ar 1.094174e+00 0.000000e+00 0.000000e+00
1
Step 500000
Ar 1.096469e+00 0.000000e+00 0.000000e+00
1
Step 501000
Ar 8.616721e-01 0.000000e+00 0.000000e+00
1
Step 502000
Ar 8.945863e-01 0.000000e+00 0.000000e+00
1
Step 503000
Ar 8.347878e-01 0.000000e+00 0.000000e+00
1
Step 504000
Ar 1.073005e+00 0.000000e+00 0.000000e+00
1
Step 505000
Ar 1.117098e+00 0.000000e+00 0.000000e+00
1
Step 506000
Ar 8.593624e-01 0.000000e+00 0.000000e+00
1
Step 507000
Ar 1.192048e+00 0.000000e+00 0.000000e+00
1
Step 508000
Ar 6.207898e-01 0.000000e+00 0.000000e+00
1
Step 509000
Ar 7.377768e-01 0.000000e+00 0.000000e+00
1
Step 510000
Ar 1.117647e+00 0.000000e+00 0.000000e+00
1
Step 511000
Ar 1.117971e+00 0.000000e+00 0.000000e+00
1
Step 512000
Ar 1.199520e+00 0.000000e+00 0.000000e+00
1
Step 513000
Ar 1.127055e+00 0.000000e+00 0.000000e+00
1
Step 514000
Ar 1.128921e+00 0.000000e+00 0.000000e+00
1
Step 515000
Ar 1.128600e+00 0.000000e+00 0.000000e+00
1
Step 516000
Ar 9.459537e-01 0.000000e+00 0.000000e+00
1
Step 517000
Ar 9.651344e-01 0.000000e+00 0.000000e+00
1
Step 518000
Ar 9.457004e-01 0.000000e+00 0.000000e+00
1
Step 519000
Ar 8.272967e-01 0.000000e+00 0.000000e+00
1
Step 520000
Ar 8.428429e-01 0.000000e+00 0.000000e+00
1
Step 521000
Ar 9.168935e-01 0.000000e+00 0.000000e+00
1
Step 522000
Ar 1.072181e+00 0.000000e+00 0.000000e+00
1
Step 523000
Ar 1.067611e+00 0.000000e+00 0.000000e+00
1
Step 524000
Ar 8.351882e-01 0.000000e+00 0.000000e+00
1
Step 525000
Ar 8.349118e-01 0.000000e+00 0.000000e+00
1
Step 526000
Ar 9.545323e-01 0.000000e+00 0.000000e+00
1
Step 527000
Ar 8.197166e-01 0.000000e+00 0.000000e+00
1
Step 528000
Ar 8.930241e-01 0.000000e+00 0.000000e+00
1
Step 529000
Ar 9.763239e-01 0.000000e+00 0.000000e+00
1
Step 530000
Ar 8.829925e-01 0.000000e+00 0.000000e+00
1
Step 531000
Ar 8.596463e-01 0.000000e+00 0.000000e+00
1
Step 532000
Ar 9.508107e-01 0.000000e+00 0.000000e+00
1
Step 533000
Ar 1.022276e+00 0.000000e+00 0.000000e+00
1
Step 534000
Ar 9.105395e-01 0.000000e+00 0.000000e+00
1
Step 535000
Ar 8.541252e-01 0.000000e+00 0.000000e+00
1
Step 536000
Ar 1.055921e+00 0.000000e+00 0.000000e+00
1
Step 537000
Ar 1.064199e+00 0.000000e+00 0.000000e+00
1
Step 538000
Ar 9.498028e-01 0.000000e+00 0.000000e+00
1
Step 539000
Ar 1.056014e+00 0.000000e+00 0.000000e+00
1
Step 540000
Ar 8.751670e-01 0.000000e+00 0.000000e+00
1
Step 541000
Ar 1.050067e+00 0.000000e+00 0.000000e+00
1
Step 542000
Ar 7.825288e-01 0.000000e+00 0.000000e+00
1
Step 543000
Ar 9.825793e-01 0.000000e+00 0.000000e+00
1
Step 544000
Ar 1.305904e+00 0.000000e+00 0.000000e+00
1
Step 545000
Ar 9.487685e-01 0.000000e+00 0.000000e+00
1
Step 546000
Ar 7.863491e-01 0.000000e+00 0.000000e+00
1
Step 547000
Ar 1.153737e+00 0.000000e+00 0.000000e+00
1
Step 548000
Ar 9.195012e-01 0.000000e+00 0.000000e+00
1
Step 549000
Ar 1.084560e+00 0.000000e+00 0.000000e+00
1
Step 550000
Ar 9.857043e-01 0.000000e+00 0.000000e+00
1
Step 551000
Ar 1.002861e+00 0.000000e+00 0.000000e+00
1
Step 552000
Ar 9.449538e-01 0.000000e+00 0.000000e+00
1
Step 553000
Ar 7.516300e-01 0.000000e+00 0.000000e+00
1
Step 554000
Ar 1.120179e+00 0.000000e+00 0.000000e+00
1
Step 555000
Ar 9.713888e-01 0.000000e+00 0.000000e+00
1
Step 556000
Ar 9.320174e-01 0.000000e+00 0.000000e+00
1
Step 557000
Ar 1.141638e+00 0.000000e+00 0.000000e+00
1
Step 558000
Ar 7.213758e-01 0.000000e+00 0.000000e+00
1
Step 559000
Ar 9.770480e-01 0.000000e+00 0.000000e+00
1
Step 560000
Ar 1.021014e+00 0.000000e+00 0.000000e+00
1
Step 561000
Ar 1.223534e+00 0.000000e+00 0.000000e+00
1
Step 562000
Ar 9.322299e-01 0.000000e+00 0.000000e+00
1
Step 563000
Ar 7.197487e-01 0.000000e+00 0.000000e+00
1
Step 564000
Ar 9.491140e-01 0.000000e+00 0.000000e+00
1
Step 565000
Ar 9.627978e-01 0.000000e+00 0.000000e+00
1
Step 566000
Ar 7.478949e-01 0.000000e+00 0.000000e+00
1
Step 567000
Ar 1.050893e+00 0.000000e+00 0.000000e+00
1
Step 568000
Ar 9.749977e-01 0.000000e+00 0.000000e+00
1
Step 569000
Ar 1.134543e+00 0.000000e+00 0.000000e+00
1
Step 570000
Ar 9.239423e-01 0.000000e+00 0.000000e+00
1
Step 571000
Ar 1.110030e+00 0.000000e+00 0.000000e+00
1
Step 572000
Ar 8.242231e-01 0.000000e+00 0.000000e+00
1
Step 573000
Ar 1.058372e+00 0.000000e+00 0.000000e+00
1
Step 574000
Ar 9.559182e-01 0.000000e+00 0.000000e+00
1
Step 575000
Ar 9.524942e-01 0.000000e+00 0.000000e+00
1
Step 576000
Ar 1.093278e+00 0.000000e+00 0.000000e+00
1
Step 577000
Ar 9.348597e-01 0.000000e+00 0.000000e+00
1
Step 578000
Ar 6.893908e-01 0.000000e+00 0.000000e+00
1
Step 579000
Ar 1.052695e+00 0.000000e+00 0.000000e+00
1
Step 580000
Ar 1.098026e+00 0.000000e+00 0.000000e+00
1
Step 581000
Ar 1.048853e+00 0.000000e+00 0.000000e+00
1
Step 582000
Ar 6.926777e-01 0.000000e+00 0.000000e+00
1
Step 583000
Ar 1.156089e+00 0.000000e+00 0.000000e+00
1
Step 584000
Ar 7.619628e-01 0.000000e+00 0.000000e+00
1
Step 585000
Ar 8.078738e-01 0.000000e+00 0.000000e+00
1
Step 586000
Ar 9.238588e-01 0.000000e+00 0.000000e+00
1
Step 587000
Ar 8.423841e-01 0.000000e+00 0.000000e+00
1
Step 588000
Ar 9.409180e-01 0.000000e+00 0.000000e+00
1
Step 589000
Ar 8.914847e-01 0.000000e+00 0.000000e+00
1
Step 590000
Ar 1.105424e+00 0.000000e+00 0.000000e+00
1
Step 591000
Ar 7.733631e-01 0.000000e+00 0.000000e+00
1
Step 592000
Ar 8.162855e-01 0.000000e+00 0.000000e+00
1
Step 593000
Ar 8.159962e-01 0.000000e+00 0.000000e+00
1
Step 594000
Ar 9.107763e-01 0.000000e+00 0.000000e+00
1
Step 595000
Ar 1.077098e+00 0.000000e+00 0.000000e+00
1
Step 596000
Ar 1.125792e+00 0.000000e+00 0.000000e+00
1
Step 597000
Ar 1.015413e+00 0.000000e+00 0.000000e+00
1
Step 598000
Ar 1.123299e+00 0.000000e+00 0.000000e+00
1
Step 599000
Ar 9.468305e-01 0.000000e+00 0.000000e+00
1
Step 600000
Ar 1.130252e+00 0.000000e+00 0.000000e+00
1
Step 601000
Ar 1.264823e+00 0.000000e+00 0.000000e+00
1
Step 602000
Ar 1.197654e+00 0.000000e+00 0.000000e+00
1
Step 603000
Ar 9.256879e-01 0.000000e+00 0.000000e+00
1
Step 604000
Ar 7.881391e-01 0.000000e+00 0.000000e+00
1
Step 605000
Ar 1.047988e+00 0.000000e+00 0.000000e+00
1
Step 606000
Ar 7.908741e-01 0.000000e+00 0.000000e+00
1
Step 607000
Ar 8.269406e-01 0.000000e+00 0.000000e+00
1
Step 608000
Ar 1.153573e+00 0.000000e+00 0.000000e+00
1
Step 609000
Ar 6.732178e-01 0.000000e+00 0.000000e+00
1
Step 610000
Ar 9.133092e-01 0.000000e+00 0.000000e+00
1
Step 611000
Ar 9.070192e-01 0.000000e+00 0.000000e+00
1
Step 612000
Ar 1.253080e+00 0.000000e+00 0.000000e+00
1
Step 613000
Ar 8.035272e-01 0.000000e+00 0.000000e+00
1
Step 614000
Ar 1.044973e+00 0.000000e+00 0.000000e+00
1
Step 615000
Ar 8.521522e-01 0.000000e+00 0.000000e+00
1
Step 616000
Ar 9.784632e-01 0.000000e+00 0.000000e+00
1
Step 617000
Ar 6.077812e-01 0.000000e+00 0.000000e+00
1
Step 618000
Ar 1.039727e+00 0.000000e+00 0.000000e+00
1
Step 619000
Ar 9.237022e-01 0.000000e+00 0.000000e+00
1
Step 620000
Ar 8.797691e-01 0.000000e+00 0.000000e+00
1
Step 621000
Ar 9.466032e-01 0.000000e+00 0.000000e+00
1
Step 622000
Ar 1.037365e+00 0.000000e+00 0.000000e+00
1
Step 623000
Ar 1.071442e+00 0.000000e+00 0.000000e+00
1
Step 624000
Ar 1.100662e+00 0.000000e+00 0.000000e+00
1
Step 625000
Ar 1.034516e+00 0.000000e+00 0.000000e+00
1
Step 626000
Ar 8.822182e-01 0.000000e+00 0.000000e+00
1
Step 627000
Ar 1.058266e+00 0.000000e+00 0.000000e+00
1
Step 628000
Ar 1.086614e+00 0.000000e+00 0.000000e+00
1
Step 629000
Ar 1.050271e+00 0.000000e+00 0.000000e+00
1
Step 630000
Ar 1.052276e+00 0.000000e+00 0.000000e+00
1
Step 631000
Ar 8.735726e-01 0.000000e+00 0.000000e+00
1
Step 632000
Ar 8.830327e-01 0.000000e+00 0.000000e+00
1
Step 633000
Ar 1.139161e+00 0.000000e+00 0.000000e+00
1
Step 634000
Ar 6.577723e-01 0.000000e+00 0.000000e+00
1
Step 635000
Ar 1.066759e+00 0.000000e+00 0.000000e+00
1
Step 636000
Ar 7.147797e-01 0.000000e+00 0.000000e+00
1
Step 637000
Ar 1.050386e+00 0.000000e+00 0.000000e+00
1
Step 638000
Ar 1.030343e+00 0.000000e+00 0.000000e+00
1
Step 639000
Ar 1.015581e+00 0.000000e+00 0.000000e+00
1
Step 640000
Ar 1.189292e+00 0.000000e+00 0.000000e+00
1
Step 641000
Ar 9.435977e-01 0.000000e+00 0.000000e+00
1
Step 642000
Ar -1.012188e+00 0.000000e+00 0.000000e+00
1
Step 643000
Ar -1.006737e+00 0.000000e+00 0.000000e+00
1
Step 644000
Ar -9.972505e-01 0.000000e+00 0.000000e+00
1
Step 645000
Ar -9.927611e-01 0.000000e+00 0.000000e+00
1
Step 646000
Ar -9.781765e-01 0.000000e+00 0.000000e+00
1
Step 647000
Ar -9.836839e-01 0.000000e+00 0.000000e+00
1
Step 648000
Ar -9.752934e-01 0.000000e+00 0.000000e+00
1
Step 649000
Ar -9.724324e-01 0.000000e+00 0.000000e+00
1
Step 650000
Ar -9.719502e-01 0.000000e+00 0.000000e+00
1
Step 651000
Ar -1.003665e+00 0.000000e+00 0.000000e+00
1
Step 652000
Ar -1.003923e+00 0.000000e+00 0.000000e+00
1
Step 653000
Ar -1.019834e+00 0.000000e+00 0.000000e+00
1
Step 654000
Ar -1.005351e+00 0.000000e+00 0.000000e+00
1
Step 655000