1
Step 120000
Ar 9.844265e-01 0.000000e+00 0.000000e+00
1
Step 121000
Ar 9.578841e-01 0.000000e+00 0.000000e+00
1
Step 122000
Ar 1.163801e+00 0.000000e+00 0.000000e+00
1
Step 123000
Ar 1.177351e+00 0.000000e+00 0.000000e+00
1
Step 124000
Ar 1.114272e+00 0.000000e+00 0.000000e+00
1
Step 125000
Ar 8.981882e-01 0.000000e+00 0.000000e+00
1
Step 126000
Ar 1.047649e+00 0.000000e+00 0.000000e+00
1
Step 127000
Ar 9.394432e-01 0.000000e+00 0.000000e+00
1
Step 128000
Ar 1.014734e+00 0.000000e+00 0.000000e+00
1
Step 129000
Ar 1.045864e+00 0.000000e+00 0.000000e+00
1
Step 130000
Ar 1.035243e+00 0.000000e+00 0.000000e+00
1
Step 131000
Ar 1.119329e+00 0.000000e+00 0.000000e+00
1
Step 132000
Ar 1.070155e+00 0.000000e+00 0.000000e+00
1
Step 133000
Ar 1.061221e+00 0.000000e+00 0.000000e+00
1
Step 134000
Ar 1.083354e+00 0.000000e+00 0.000000e+00
1
Step 135000
Ar 1.066251e+00 0.000000e+00 0.000000e+00
1
Step 136000
Ar 1.071231e+00 0.000000e+00 0.000000e+00
1
Step 137000
Ar 1.066019e+00 0.000000e+00 0.000000e+00
1
Step 138000
Ar 1.091197e+00 0.000000e+00 0.000000e+00
1
Step 139000
Ar 1.049292e+00 0.000000e+00 0.000000e+00
1
Step 140000
Ar 1.093967e+00 0.000000e+00 0.000000e+00
1
Step 141000
Ar 1.053870e+00 0.000000e+00 0.000000e+00
1
Step 142000
Ar 1.066777e+00 0.000000e+00 0.000000e+00
1
Step 143000
Ar 1.087084e+00 0.000000e+00 0.000000e+00
1
Step 144000
Ar 1.051759e+00 0.000000e+00 0.000000e+00
1
Step 145000
Ar 1.059778e+00 0.000000e+00 0.000000e+00
1
Step 146000
Ar 1.057281e+00 0.000000e+00 0.000000e+00
1
Step 147000
Ar 1.087304e+00 0.000000e+00 0.000000e+00
1
Step 148000
Ar 1.105929e+00 0.000000e+00 0.000000e+00
1
Step 149000
Ar 1.092040e+00 0.000000e+00 0.000000e+00
1
Step 150000
Ar 1.091815e+00 0.000000e+00 0.000000e+00
1
Step 151000
Ar 9.441573e-01 0.000000e+00 0.000000e+00
1
Step 152000
Ar 9.845754e-01 0.000000e+00 0.000000e+00
1
Step 153000
Ar 9.920740e-01 0.000000e+00 0.000000e+00
1
Step 154000
Ar 9.187166e-01 0.000000e+00 0.000000e+00
1
Step 155000
Ar 9.315043e-01 0.000000e+00 0.000000e+00
1
Step 156000
Ar 9.695977e-01 0.000000e+00 0.000000e+00
1
Step 157000
Ar 9.441440e-01 0.000000e+00 0.000000e+00
1
Step 158000
Ar 9.715983e-01 0.000000e+00 0.000000e+00
1
Step 159000
Ar 9.835694e-01 0.000000e+00 0.000000e+00
1
Step 160000
Ar 9.921275e-01 0.000000e+00 0.000000e+00
1
Step 161000
Ar 8.431420e-01 0.000000e+00 0.000000e+00
1
Step 162000
Ar 8.098908e-01 0.000000e+00 0.000000e+00
1
Step 163000
Ar 8.409534e-01 0.000000e+00 0.000000e+00
1
Step 164000
Ar 7.287977e-01 0.000000e+00 0.000000e+00
1
Step 165000
Ar 8.005294e-01 0.000000e+00 0.000000e+00
1
Step 166000
Ar 7.550817e-01 0.000000e+00 0.000000e+00
1
Step 167000
Ar 7.893549e-01 0.000000e+00 0.000000e+00
1
Step 168000
Ar 7.760652e-01 0.000000e+00 0.000000e+00
1
Step 169000
Ar 8.683143e-01 0.000000e+00 0.000000e+00
1
Step 170000
Ar 8.538956e-01 0.000000e+00 0.000000e+00
1
Step 171000
Ar 6.430705e-01 0.000000e+00 0.000000e+00
1
Step 172000
Ar 6.977131e-01 0.000000e+00 0.000000e+00
1
Step 173000
Ar 6.023872e-01 0.000000e+00 0.000000e+00
1
Step 174000
Ar 7.293254e-01 0.000000e+00 0.000000e+00
1
Step 175000
Ar 5.948349e-01 0.000000e+00 0.000000e+00
1
Step 176000
Ar 6.789948e-01 0.000000e+00 0.000000e+00
1
Step 177000
Ar 7.216067e-01 0.000000e+00 0.000000e+00
1
Step 178000
Ar 7.955667e-01 0.000000e+00 0.000000e+00
1
Step 179000
Ar 6.292765e-01 0.000000e+00 0.000000e+00
1
Step 180000
Ar 7.441569e-01 0.000000e+00 0.000000e+00
1
Step 181000
Ar 7.480200e-01 0.000000e+00 0.000000e+00
1
Step 182000
Ar 7.780096e-01 0.000000e+00 0.000000e+00
1
Step 183000
Ar 7.531859e-01 0.000000e+00 0.000000e+00
1
Step 184000
Ar 7.549756e-01 0.000000e+00 0.000000e+00
1
Step 185000
Ar 6.549487e-01 0.000000e+00 0.000000e+00
1
Step 186000
Ar 6.723487e-01 0.000000e+00 0.000000e+00
1
Step 187000
Ar 7.169886e-01 0.000000e+00 0.000000e+00
1
Step 188000
Ar 6.943847e-01 0.000000e+00 0.000000e+00
1
Step 189000
Ar 6.755279e-01 0.000000e+00 0.000000e+00
1
Step 190000
Ar 6.631726e-01 0.000000e+00 0.000000e+00
1
Step 191000
Ar 7.212247e-01 0.000000e+00 0.000000e+00
1
Step 192000
Ar 6.990891e-01 0.000000e+00 0.000000e+00
1
Step 193000
Ar 7.152233e-01 0.000000e+00 0.000000e+00
1
Step 194000
Ar 5.356157e-01 0.000000e+00 0.000000e+00
1
Step 195000
Ar 6.426137e-01 0.000000e+00 0.000000e+00
1
Step 196000
Ar 6.547425e-01 0.000000e+00 0.000000e+00
1
Step 197000
Ar 1.927250e-01 0.000000e+00 0.000000e+00
1
Step 198000
Ar 5.436611e-01 0.000000e+00 0.000000e+00
1
Step 199000
Ar 5.722793e-01 0.000000e+00 0.000000e+00
1
Step 200000
Ar 5.355826e-01 0.000000e+00 0.000000e+00
1
Step 201000
Ar 3.853565e-01 0.000000e+00 0.000000e+00
1
Step 202000
Ar 5.571681e-01 0.000000e+00 0.000000e+00
1
Step 203000
Ar 5.119880e-01 0.000000e+00 0.000000e+00
1
Step 204000
Ar 5.494143e-01 0.000000e+00 0.000000e+00
1
Step 205000
Ar 4.422432e-01 0.000000e+00 0.000000e+00
1
Step 206000
Ar 5.482603e-01 0.000000e+00 0.000000e+00
1
Step 207000
Ar 4.970539e-01 0.000000e+00 0.000000e+00
1
Step 208000
Ar 5.069173e-01 0.000000e+00 0.000000e+00
1
Step 209000
Ar 4.221483e-01 0.000000e+00 0.000000e+00
1
Step 210000
Ar 5.028363e-01 0.000000e+00 0.000000e+00
1
Step 211000
Ar 5.255557e-01 0.000000e+00 0.000000e+00
1
Step 212000
Ar 4.261622e-01 0.000000e+00 0.000000e+00
1
Step 213000
Ar 5.487063e-01 0.000000e+00 0.000000e+00
1
Step 214000
Ar 4.401328e-01 0.000000e+00 0.000000e+00
1
Step 215000
Ar 5.439426e-01 0.000000e+00 0.000000e+00
1
Step 216000
Ar 5.530903e-01 0.000000e+00 0.000000e+00
1
Step 217000
Ar 5.349955e-01 0.000000e+00 0.000000e+00
1
Step 218000
Ar 5.426148e-01 0.000000e+00 0.000000e+00
1
Step 219000
Ar 5.408571e-01 0.000000e+00 0.000000e+00
1
Step 220000
Ar 6.006672e-01 0.000000e+00 0.000000e+00
1
Step 221000
Ar 6.008102e-01 0.000000e+00 0.000000e+00
1
Step 222000
Ar 6.075287e-01 0.000000e+00 0.000000e+00
1
Step 223000
Ar 6.097721e-01 0.000000e+00 0.000000e+00
1
Step 224000
Ar 5.982183e-01 0.000000e+00 0.000000e+00
1
Step 225000
Ar 5.953891e-01 0.000000e+00 0.000000e+00
1
Step 226000
Ar 5.974304e-01 0.000000e+00 0.000000e+00
1
Step 227000
Ar 5.943411e-01 0.000000e+00 0.000000e+00
1
Step 228000
Ar 5.983490e-01 0.000000e+00 0.000000e+00
1
Step 229000
Ar 5.509904e-01 0.000000e+00 0.000000e+00
1
Step 230000
Ar 5.444437e-01 0.000000e+00 0.000000e+00
1
Step 231000
Ar 4.516228e-01 0.000000e+00 0.000000e+00
1
Step 232000
Ar -8.711317e-01 0.000000e+00 0.000000e+00
1
Step 233000
Ar -1.041880e+00 0.000000e+00 0.000000e+00
1
Step 234000
Ar -1.100287e+00 0.000000e+00 0.000000e+00
1
Step 235000
Ar -1.006853e+00 0.000000e+00 0.000000e+00
1
Step 236000
Ar -9.884548e-01 0.000000e+00 0.000000e+00
1
Step 237000
Ar -7.010013e-01 0.000000e+00 0.000000e+00
1
Step 238000
Ar -1.120685e+00 0.000000e+00 0.000000e+00
1
Step 239000
Ar -1.145577e+00 0.000000e+00 0.000000e+00
1
Step 240000
Ar -8.806745e-01 0.000000e+00 0.000000e+00
1
Step 241000
Ar -9.755298e-01 0.000000e+00 0.000000e+00
1
Step 242000
Ar -1.048683e+00 0.000000e+00 0.000000e+00
1
Step 243000
Ar -9.640014e-01 0.000000e+00 0.000000e+00
1
Step 244000
Ar -1.036315e+00 0.000000e+00 0.000000e+00
1
Step 245000
Ar -1.075354e+00 0.000000e+00 0.000000e+00
1
Step 246000
Ar -1.079698e+00 0.000000e+00 0.000000e+00
1
Step 247000
Ar -1.065163e+00 0.000000e+00 0.000000e+00
1
Step 248000
Ar -1.059261e+00 0.000000e+00 0.000000e+00
1
Step 249000
Ar -1.058912e+00 0.000000e+00 0.000000e+00
1
Step 250000
Ar -1.180058e+00 0.000000e+00 0.000000e+00
1
Step 251000
Ar -1.108981e+00 0.000000e+00 0.000000e+00
1
Step 252000
Ar -1.153002e+00 0.000000e+00 0.000000e+00
1
Step 253000
Ar -1.263226e+00 0.000000e+00 0.000000e+00
1
Step 254000
Ar -1.138044e+00 0.000000e+00 0.000000e+00
1
Step 255000
Ar -1.146028e+00 0.000000e+00 0.000000e+00
1
Step 256000
Ar -1.214215e+00 0.000000e+00 0.000000e+00
1
Step 257000
Ar -1.148786e+00 0.000000e+00 0.000000e+00
1
Step 258000
Ar -1.161788e+00 0.000000e+00 0.000000e+00
1
Step 259000
Ar -1.181449e+00 0.000000e+00 0.000000e+00
1
Step 260000
Ar -1.171967e+00 0.000000e+00 0.000000e+00
1
Step 261000
Ar -1.150465e+00 0.000000e+00 0.000000e+00
1
Step 262000
Ar -1.152882e+00 0.000000e+00 0.000000e+00
1
Step 263000
Ar -1.175729e+00 0.000000e+00 0.000000e+00
1
Step 264000
Ar -1.238609e+00 0.000000e+00 0.000000e+00
1
Step 265000
Ar -1.156751e+00 0.000000e+00 0.000000e+00
1
Step 266000
Ar -8.274546e-01 0.000000e+00 0.000000e+00
1
Step 267000
Ar -8.892943e-01 0.000000e+00 0.000000e+00
1
Step 268000
Ar -7.820001e-01 0.000000e+00 0.000000e+00
1
Step 269000
Ar -8.276589e-01 0.000000e+00 0.000000e+00
1
Step 270000
Ar -7.146050e-01 0.000000e+00 0.000000e+00
1
Step 271000
Ar -6.298520e-01 0.000000e+00 0.000000e+00
1
Step 272000
Ar -8.603540e-01 0.000000e+00 0.000000e+00
1
Step 273000
Ar -7.770674e-01 0.000000e+00 0.000000e+00
1
Step 274000
Ar -8.101815e-01 0.000000e+00 0.000000e+00
1
Step 275000
Ar -5.864173e-01 0.000000e+00 0.000000e+00
1
Step 276000
Ar -6.464238e-01 0.000000e+00 0.000000e+00
1
Step 277000
Ar -7.711801e-01 0.000000e+00 0.000000e+00
1
Step 278000
Ar -8.538334e-01 0.000000e+00 0.000000e+00
1
Step 279000
Ar -8.239972e-01 0.000000e+00 0.000000e+00
1
Step 280000
Ar -5.584584e-01 0.000000e+00 0.000000e+00
1
Step 281000
Ar -7.952094e-01 0.000000e+00 0.000000e+00
1
Step 282000
Ar -8.103910e-01 0.000000e+00 0.000000e+00
1
Step 283000
Ar -8.562456e-01 0.000000e+00 0.000000e+00
1
Step 284000
Ar -7.892554e-01 0.000000e+00 0.000000e+00
1
Step 285000
Ar -8.592840e-01 0.000000e+00 0.000000e+00
1
Step 286000
Ar -8.346203e-01 0.000000e+00 0.000000e+00
1
Step 287000
Ar -9.498885e-01 0.000000e+00 0.000000e+00
1
Step 288000
Ar -9.858513e-01 0.000000e+00 0.000000e+00
1
Step 289000
Ar -9.746315e-01 0.000000e+00 0.000000e+00
1
Step 290000
Ar -9.304837e-01 0.000000e+00 0.000000e+00
1
Step 291000
Ar -9.332445e-01 0.000000e+00 0.000000e+00
1
Step 292000
Ar -9.591862e-01 0.000000e+00 0.000000e+00
1
Step 293000
Ar -8.853213e-01 0.000000e+00 0.000000e+00
1
Step 294000
Ar -9.588882e-01 0.000000e+00 0.000000e+00
1
Step 295000
Ar -1.003397e+00 0.000000e+00 0.000000e+00
1
Step 296000
Ar -1.019259e+00 0.000000e+00 0.000000e+00
1
Step 297000
Ar -1.022157e+00 0.000000e+00 0.000000e+00
1
Step 298000
Ar -1.024355e+00 0.000000e+00 0.000000e+00
1
Step 299000
Ar -8.341803e-01 0.000000e+00 0.000000e+00
1
Step 300000
Ar -7.914023e-01 0.000000e+00 0.000000e+00
1
Step 301000
Ar -7.597056e-01 0.000000e+00 0.000000e+00
1
Step 302000
Ar -7.831176e-01 0.000000e+00 0.000000e+00
1
Step 303000
Ar -7.832066e-01 0.000000e+00 0.000000e+00
1
Step 304000
Ar -5.620307e-01 0.000000e+00 0.000000e+00
1
Step 305000
Ar -6.306441e-01 0.000000e+00 0.000000e+00
1
Step 306000
Ar -4.428878e-01 0.000000e+00 0.000000e+00
1
Step 307000
Ar -5.827998e-01 0.000000e+00 0.000000e+00
1
Step 308000
Ar -6.898126e-01 0.000000e+00 0.000000e+00
1
Step 309000
Ar -3.536040e-01 0.000000e+00 0.000000e+00
1
Step 310000
Ar -5.416155e-01 0.000000e+00 0.000000e+00
1
Step 311000
Ar -6.606810e-01 0.000000e+00 0.000000e+00
1
Step 312000
Ar -6.477619e-01 0.000000e+00 0.000000e+00
1
Step 313000
Ar -6.722739e-01 0.000000e+00 0.000000e+00
1
Step 314000
Ar -6.428199e-01 0.000000e+00 0.000000e+00
1
Step 315000
Ar -6.459568e-01 0.000000e+00 0.000000e+00
1
Step 316000
Ar -5.895833e-01 0.000000e+00 0.000000e+00
1
Step 317000
Ar -5.249644e-01 0.000000e+00 0.000000e+00
1
Step 318000
Ar -6.804937e-01 0.000000e+00 0.000000e+00
1
Step 319000
Ar -5.455613e-01 0.000000e+00 0.000000e+00
1
Step 320000
Ar -6.110441e-01 0.000000e+00 0.000000e+00
1
Step 321000
Ar -5.917840e-01 0.000000e+00 0.000000e+00
1
Step 322000
Ar -4.354177e-02 0.000000e+00 0.000000e+00
1
Step 323000
Ar 4.139879e-01 0.000000e+00 0.000000e+00
1
Step 324000
Ar 3.941948e-01 0.000000e+00 0.000000e+00
1
Step 325000
Ar 4.859455e-01 0.000000e+00 0.000000e+00
1
Step 326000
Ar 5.062970e-01 0.000000e+00 0.000000e+00
1
Step 327000
Ar 5.131541e-01 0.000000e+00 0.000000e+00
1
Step 328000
Ar 3.908421e-01 0.000000e+00 0.000000e+00
1
Step 329000
Ar -5.933007e-01 0.000000e+00 0.000000e+00
1
Step 330000
Ar -5.176198e-01 0.000000e+00 0.000000e+00
1
Step 331000
Ar -4.558077e-01 0.000000e+00 0.000000e+00
1
Step 332000
Ar -5.577301e-01 0.000000e+00 0.000000e+00
1
Step 333000
Ar 1.339568e-01 0.000000e+00 0.000000e+00
1
Step 334000
Ar 4.646451e-01 0.000000e+00 0.000000e+00
1
Step 335000
Ar 4.985426e-01 0.000000e+00 0.000000e+00
1
Step 336000
Ar 4.598058e-01 0.000000e+00 0.000000e+00
1
Step 337000
Ar 4.267353e-01 0.000000e+00 0.000000e+00
1
Step 338000
Ar 4.637292e-01 0.000000e+00 0.000000e+00
1
Step 339000
Ar 5.017566e-01 0.000000e+00 0.000000e+00
1
Step 340000
Ar 3.185425e-01 0.000000e+00 0.000000e+00
1
Step 341000
Ar 3.285340e-01 0.000000e+00 0.000000e+00
1
Step 342000
Ar 4.501568e-01 0.000000e+00 0.000000e+00
1
Step 343000
Ar 4.800188e-01 0.000000e+00 0.000000e+00
1
Step 344000
Ar 3.799118e-01 0.000000e+00 0.000000e+00
1
Step 345000
Ar 4.851760e-01 0.000000e+00 0.000000e+00
1
Step 346000
Ar 4.123092e-01 0.000000e+00 0.000000e+00
1
Step 347000
Ar 3.017125e-01 0.000000e+00 0.000000e+00
1
Step 348000
Ar 4.561292e-01 0.000000e+00 0.000000e+00
1
Step 349000
Ar 4.612889e-01 0.000000e+00 0.000000e+00
1
Step 350000
Ar 4.523880e-01 0.000000e+00 0.000000e+00
1
Step 351000
Ar 4.775862e-01 0.000000e+00 0.000000e+00
1
Step 352000
Ar -2.949260e-01 0.000000e+00 0.000000e+00
1
Step 353000
Ar -5.975711e-01 0.000000e+00 0.000000e+00
1
Step 354000
Ar -5.180149e-01 0.000000e+00 0.000000e+00
1
Step 355000
Ar -3.535069e-01 0.000000e+00 0.000000e+00
1
Step 356000
Ar -5.858944e-01 0.000000e+00 0.000000e+00
1
Step 357000
Ar -5.876566e-01 0.000000e+00 0.000000e+00
1
Step 358000
Ar -5.725389e-01 0.000000e+00 0.000000e+00
1
Step 359000
Ar -5.433707e-01 0.000000e+00 0.000000e+00
1
Step 360000
Ar -5.760853e-01 0.000000e+00 0.000000e+00
1
Step 361000
Ar -5.591478e-01 0.000000e+00 0.000000e+00
1
Step 362000
Ar -5.477381e-01 0.000000e+00 0.000000e+00
1
Step 363000
Ar -5.495823e-01 0.000000e+00 0.000000e+00
1
Step 364000
Ar -5.495756e-01 0.000000e+00 0.000000e+00
1
Step 365000
Ar -5.677119e-01 0.000000e+00 0.000000e+00
1
Step 366000
Ar -7.219825e-01 0.000000e+00 0.000000e+00
1
Step 367000
Ar -7.547331e-01 0.000000e+00 0.000000e+00
1
Step 368000
Ar -7.192862e-01 0.000000e+00 0.000000e+00
1
Step 369000
Ar -7.304710e-01 0.000000e+00 0.000000e+00
1
Step 370000
Ar -6.777231e-01 0.000000e+00 0.000000e+00
1
Step 371000
Ar -7.585335e-01 0.000000e+00 0.000000e+00
1
Step 372000
Ar -7.606089e-01 0.000000e+00 0.000000e+00
1
Step 373000
Ar -6.944383e-01 0.000000e+00 0.000000e+00
1
Step 374000
Ar -6.744239e-01 0.000000e+00 0.000000e+00
1
Step 375000
Ar -6.765759e-01 0.000000e+00 0.000000e+00
1
Step 376000
Ar -6.901500e-01 0.000000e+00 0.000000e+00
1
Step 377000
Ar -6.949695e-01 0.000000e+00 0.000000e+00
1
Step 378000
Ar -6.906367e-01 0.000000e+00 0.000000e+00
1
Step 379000
Ar -6.484097e-01 0.000000e+00 0.000000e+00
1
Step 380000
Ar -4.593143e-01 0.000000e+00 0.000000e+00
1
Step 381000
Ar -5.159758e-01 0.000000e+00 0.000000e+00
1
Step 382000
Ar -5.083880e-01 0.000000e+00 0.000000e+00
1
Step 383000
Ar -4.923732e-01 0.000000e+00 0.000000e+00
1
Step 384000
Ar -4.975875e-01 0.000000e+00 0.000000e+00
1
Step 385000
Ar -4.597952e-01 0.000000e+00 0.000000e+00
1
Step 386000
Ar -4.866274e-01 0.000000e+00 0.000000e+00
1
Step 387000
Ar -4.937452e-01 0.000000e+00 0.000000e+00
1
Step 388000
Ar -5.208228e-01 0.000000e+00 0.000000e+00
1
Step 389000
Ar -5.169330e-01 0.000000e+00 0.000000e+00
1
Step 390000
Ar -5.189925e-01 0.000000e+00 0.000000e+00
1
Step 391000
Ar -5.233227e-01 0.000000e+00 0.000000e+00
1
Step 392000
Ar -5.188727e-01 0.000000e+00 0.000000e+00
1
Step 393000
Ar -5.960375e-01 0.000000e+00 0.000000e+00
1
Step 394000
Ar -5.938857e-01 0.000000e+00 0.000000e+00
1
Step 395000
Ar -5.899700e-01 0.000000e+00 0.000000e+00
1
Step 396000
Ar -5.926558e-01 0.000000e+00 0.000000e+00
1
Step 397000
Ar -5.939459e-01 0.000000e+00 0.000000e+00
1
Step 398000
Ar -5.916161e-01 0.000000e+00 0.000000e+00
1
Step 399000
Ar -5.901453e-01 0.000000e+00 0.000000e+00
1
Step 400000
Ar -5.904200e-01 0.000000e+00 0.000000e+00
1
Step 401000
Ar -5.955246e-01 0.000000e+00 0.000000e+00
1
Step 402000
Ar -5.940435e-01 0.000000e+00 0.000000e+00
1
Step 403000
Ar -5.916732e-01 0.000000e+00 0.000000e+00
1
Step 404000
Ar -5.193019e-01 0.000000e+00 0.000000e+00
1
Step 405000
Ar -5.222231e-01 0.000000e+00 0.000000e+00
1
Step 406000
Ar -5.190900e-01 0.000000e+00 0.000000e+00
1
Step 407000
Ar -8.276858e-01 0.000000e+00 0.000000e+00
1
Step 408000
Ar -8.158939e-01 0.000000e+00 0.000000e+00
1
Step 409000
Ar -8.266613e-01 0.000000e+00 0.000000e+00
1
Step 410000
Ar -9.829960e-01 0.000000e+00 0.000000e+00
1
Step 411000
Ar -9.868820e-01 0.000000e+00 0.000000e+00
1
Step 412000
Ar -9.872034e-01 0.000000e+00 0.000000e+00
1
Step 413000
Ar -9.855299e-01 0.000000e+00 0.000000e+00
1
Step 414000
Ar -9.820721e-01 0.000000e+00 0.000000e+00
1
Step 415000
Ar -1.002217e+00 0.000000e+00 0.000000e+00
1
Step 416000
Ar -9.579540e-01 0.000000e+00 0.000000e+00
1
Step 417000
Ar 2.989847e-01 0.000000e+00 0.000000e+00
1
Step 418000
Ar 3.306640e-01 0.000000e+00 0.000000e+00
1
Step 419000
Ar 2.705575e-01 0.000000e+00 0.000000e+00
1
Step 420000
Ar -4.298071e-01 0.000000e+00 0.000000e+00
1
Step 421000
Ar -4.184786e-01 0.000000e+00 0.000000e+00
1
Step 422000
Ar -3.701779e-01 0.000000e+00 0.000000e+00
1
Step 423000
Ar -3.835615e-01 0.000000e+00 0.000000e+00
1
Step 424000
Ar -4.089942e-01 0.000000e+00 0.000000e+00
1
Step 425000
Ar -3.698224e-01 0.000000e+00 0.000000e+00
1
Step 426000
Ar -4.780692e-01 0.000000e+00 0.000000e+00
1
Step 427000
Ar -4.010136e-01 0.000000e+00 0.000000e+00
1
Step 428000
Ar -3.912295e-01 0.000000e+00 0.000000e+00
1
Step 429000
Ar -3.858551e-01 0.000000e+00 0.000000e+00
1
Step 430000
Ar -3.808483e-01 0.000000e+00 0.000000e+00
1
Step 431000
Ar -3.958548e-01 0.000000e+00 0.000000e+00
1
Step 432000
Ar -3.927306e-01 0.000000e+00 0.000000e+00
1
Step 433000
Ar -4.020680e-01 0.000000e+00 0.000000e+00
1
Step 434000
Ar -4.089558e-01 0.000000e+00 0.000000e+00
1
Step 435000
Ar -3.947691e-01 0.000000e+00 0.000000e+00
1
Step 436000
Ar -3.932440e-01 0.000000e+00 0.000000e+00
1
Step 437000
Ar -3.704053e-01 0.000000e+00 0.000000e+00
1
Step 438000
Ar -3.391373e-01 0.000000e+00 0.000000e+00
1
Step 439000
Ar -3.461813e-01 0.000000e+00 0.000000e+00
1
Step 440000
Ar -3.361222e-01 0.000000e+00 0.000000e+00
1
Step 441000
Ar -3.414984e-01 0.000000e+00 0.000000e+00
1
Step 442000
Ar -3.488875e-01 0.000000e+00 0.000000e+00
1
Step 443000
Ar -3.417957e-01 0.000000e+00 0.000000e+00
1
Step 444000
Ar -3.789732e-01 0.000000e+00 0.000000e+00
1
Step 445000
Ar -3.683346e-01 0.000000e+00 0.000000e+00
1
Step 446000
Ar -3.802556e-01 0.000000e+00 0.000000e+00
1
Step 447000
Ar -3.825886e-01 0.000000e+00 0.000000e+00
1
Step 448000
Ar -3.772027e-01 0.000000e+00 0.000000e+00
1
Step 449000
Ar -4.872038e-01 0.000000e+00 0.000000e+00
1
Step 450000
Ar -4.652609e-01 0.000000e+00 0.000000e+00
1
Step 451000
Ar -4.696753e-01 0.000000e+00 0.000000e+00
1
Step 452000
Ar -4.696915e-01 0.000000e+00 0.000000e+00
1
Step 453000
Ar -4.683281e-01 0.000000e+00 0.000000e+00
1
Step 454000
Ar -4.694659e-01 0.000000e+00 0.000000e+00
1
Step 455000
Ar -1.183676e+00 0.000000e+00 0.000000e+00
1
Step 456000
Ar -1.276545e+00 0.000000e+00 0.000000e+00
1
Step 457000
Ar -1.224612e+00 0.000000e+00 0.000000e+00
1
Step 458000
Ar -1.176417e+00 0.000000e+00 0.000000e+00
1
Step 459000
Ar -1.177273e+00 0.000000e+00 0.000000e+00
1
Step 460000
Ar -1.176062e+00 0.000000e+00 0.000000e+00
1
Step 461000
Ar -1.180773e+00 0.000000e+00 0.000000e+00
1
Step 462000
Ar -1.172642e+00 0.000000e+00 0.000000e+00
1
Step 463000
Ar -1.179940e+00 0.000000e+00 0.000000e+00
1
Step 464000
Ar -1.174015e+00 0.000000e+00 0.000000e+00
1
Step 465000
Ar -1.180186e+00 0.000000e+00 0.000000e+00
1
Step 466000
Ar -1.174923e+00 0.000000e+00 0.000000e+00
1
Step 467000
Ar -1.173270e+00 0.000000e+00 0.000000e+00
1
Step 468000
Ar -1.175975e+00 0.000000e+00 0.000000e+00
1
Step 469000
Ar -1.175593e+00 0.000000e+00 0.000000e+00
1
Step 470000
Ar -1.175316e+00 0.000000e+00 0.000000e+00
1
Step 471000
Ar -1.168514e+00 0.000000e+00 0.000000e+00
1
Step 472000
Ar -1.113846e+00 0.000000e+00 0.000000e+00
1
Step 473000
Ar -1.117328e+00 0.000000e+00 0.000000e+00
1
Step 474000
Ar -1.118606e+00 0.000000e+00 0.000000e+00
1
Step 475000
Ar -1.100400e+00 0.000000e+00 0.000000e+00
1
Step 476000
Ar -1.106772e+00 0.000000e+00 0.000000e+00
1
Step 477000
Ar -1.107136e+00 0.000000e+00 0.000000e+00
1
Step 478000
Ar -1.233904e+00 0.000000e+00 0.000000e+00
1
Step 479000
Ar -1.054417e+00 0.000000e+00 0.000000e+00
1
Step 480000
Ar -1.058141e+00 0.000000e+00 0.000000e+00
1
Step 481000
Ar -1.043675e+00 0.000000e+00 0.000000e+00
1
Step 482000
Ar -1.044713e+00 0.000000e+00 0.000000e+00
1
Step 483000
Ar -1.051257e+00 0.000000e+00 0.000000e+00
1
Step 484000
Ar 3.657758e-01 0.000000e+00 0.000000e+00
1
Step 485000
Ar 3.001305e-01 0.000000e+00 0.000000e+00
1
Step 486000
Ar 6.076073e-02 0.000000e+00 0.000000e+00
1
Step 487000
Ar 1.836571e-01 0.000000e+00 0.000000e+00
1
Step 488000
Ar 1.945060e-01 0.000000e+00 0.000000e+00
1
Step 489000
Ar -2.301595e-01 0.000000e+00 0.000000e+00
1
Step 490000
Ar -2.878001e-01 0.000000e+00 0.000000e+00
1
Step 491000
Ar -2.576395e-01 0.000000e+00 0.000000e+00
1
Step 492000
Ar 2.193877e-01 0.000000e+00 0.000000e+00
1
Step 493000
Ar 5.679871e-02 0.000000e+00 0.000000e+00
1
Step 494000
Ar -4.318682e-02 0.000000e+00 0.000000e+00
1
Step 495000
Ar -2.014151e-01 0.000000e+00 0.000000e+00
1
Step 496000
Ar -3.717395e-02 0.000000e+00 0.000000e+00
1
Step 497000
Ar -3.092070e-01 0.000000e+00 0.000000e+00
1
Step 498000
Ar 1.064658e-01 0.000000e+00 0.000000e+00
1
Step 499000
Ar -2.934282e-01 0.000000e+00 0.000000e+00
1
Step 500000
Ar 2.028886e-01 0.000000e+00 0.000000e+00
1
Step 501000
Ar -2.919975e-01 0.000000e+00 0.000000e+00
1
Step 502000
Ar -2.720542e-01 0.000000e+00 0.000000e+00
1
Step 503000
Ar -1.391851e-01 0.000000e+00 0.000000e+00
1
Step 504000
Ar -2.605389e-01 0.000000e+00 0.000000e+00
1
Step 505000
Ar -2.624485e-01 0.000000e+00 0.000000e+00
1
Step 506000
Ar -2.544711e-01 0.000000e+00 0.000000e+00
1
Step 507000
Ar -2.971037e-01 0.000000e+00 0.000000e+00
1
Step 508000
Ar -3.042967e-01 0.000000e+00 0.000000e+00
1
Step 509000
Ar -3.775118e-01 0.000000e+00 0.000000e+00
1
Step 510000
Ar -3.761171e-01 0.000000e+00 0.000000e+00
1
Step 511000
Ar -3.775731e-01 0.000000e+00 0.000000e+00
1
Step 512000
Ar -3.790545e-01 0.000000e+00 0.000000e+00
1
Step 513000
Ar -3.773543e-01 0.000000e+00 0.000000e+00
1
Step 514000
Ar -3.773441e-01 0.000000e+00 0.000000e+00
1
Step 515000
Ar -3.797022e-01 0.000000e+00 0.000000e+00
1
Step 516000
Ar -3.830148e-01 0.000000e+00 0.000000e+00
1
Step 517000
Ar -3.836730e-01 0.000000e+00 0.000000e+00
1
Step 518000
Ar -4.156003e-01 0.000000e+00 0.000000e+00
1
Step 519000
Ar -4.112268e-01 0.000000e+00 0.000000e+00
1
Step 520000
Ar -4.085555e-01 0.000000e+00 0.000000e+00
1
Step 521000
Ar -1.567494e-01 0.000000e+00 0.000000e+00
1
Step 522000
Ar -2.489898e-01 0.000000e+00 0.000000e+00
1
Step 523000
Ar -1.185840e-02 0.000000e+00 0.000000e+00
1
Step 524000
Ar -1.933979e-01 0.000000e+00 0.000000e+00
1
Step 525000
Ar -2.383019e-01 0.000000e+00 0.000000e+00
1
Step 526000
Ar -1.168309e-02 0.000000e+00 0.000000e+00
1
Step 527000
Ar 2.053569e-01 0.000000e+00 0.000000e+00
1
Step 528000
Ar 3.003237e-02 0.000000e+00 0.000000e+00
1
Step 529000
Ar 2.433621e-01 0.000000e+00 0.000000e+00
1
Step 530000
Ar 6.469969e-02 0.000000e+00 0.000000e+00
1
Step 531000
Ar 9.062448e-02 0.000000e+00 0.000000e+00
1
Step 532000
Ar 2.413418e-01 0.000000e+00 0.000000e+00
1
Step 533000
Ar 2.156683e-01 0.000000e+00 0.000000e+00
1
Step 534000
Ar 1.873702e-01 0.000000e+00 0.000000e+00
1
Step 535000
Ar 2.299593e-01 0.000000e+00 0.000000e+00
1
Step 536000
Ar 2.336396e-01 0.000000e+00 0.000000e+00
1
Step 537000
Ar 2.427766e-01 0.000000e+00 0.000000e+00
1
Step 538000
Ar 2.440232e-01 0.000000e+00 0.000000e+00
1
Step 539000
Ar 2.394449e-01 0.000000e+00 0.000000e+00
1
Step 540000
Ar 2.401712e-01 0.000000e+00 0.000000e+00
1
Step 541000
Ar 2.297933e-01 0.000000e+00 0.000000e+00
1
Step 542000
Ar 2.316148e-01 0.000000e+00 0.000000e+00
1
Step 543000
Ar 2.331201e-01 0.000000e+00 0.000000e+00
1
Step 544000
Ar 2.239789e-01 0.000000e+00 0.000000e+00
1
Step 545000
Ar 2.296352e-01 0.000000e+00 0.000000e+00
1
Step 546000
Ar 2.342725e-01 0.000000e+00 0.000000e+00
1
Step 547000
Ar 2.413299e-01 0.000000e+00 0.000000e+00
1
Step 548000
Ar 2.218699e-01 0.000000e+00 0.000000e+00
1
Step 549000
Ar 2.429222e-01 0.000000e+00 0.000000e+00
1
Step 550000
Ar 4.800106e-01 0.000000e+00 0.000000e+00
1
Step 551000
Ar 4.762106e-01 0.000000e+00 0.000000e+00
1
Step 552000
Ar 4.941209e-01 0.000000e+00 0.000000e+00
1
Step 553000
Ar 4.461937e-01 0.000000e+00 0.000000e+00
1
Step 554000
Ar 4.926334e-01 0.000000e+00 0.000000e+00
1
Step 555000
Ar 4.294092e-01 0.000000e+00 0.000000e+00
1
Step 556000
Ar 4.874758e-01 0.000000e+00 0.000000e+00
1
Step 557000
Ar 4.399939e-01 0.000000e+00 0.000000e+00
1
Step 558000
Ar 4.495426e-01 0.000000e+00 0.000000e+00
1
Step 559000
Ar 9.936235e-01 0.000000e+00 0.000000e+00
1
Step 560000
Ar 9.967948e-01 0.000000e+00 0.000000e+00
1
Step 561000
Ar 9.295317e-01 0.000000e+00 0.000000e+00
1
Step 562000
Ar 9.105257e-01 0.000000e+00 0.000000e+00
1
Step 563000
Ar 9.240946e-01 0.000000e+00 0.000000e+00
1
Step 564000
Ar 1.058309e+00 0.000000e+00 0.000000e+00
1
Step 565000
Ar 1.066495e+00 0.000000e+00 0.000000e+00
1
Step 566000
Ar 1.066545e+00 0.000000e+00 0.000000e+00
1
Step 567000
Ar 1.069138e+00 0.000000e+00 0.000000e+00
1
Step 568000
Ar 1.065411e+00 0.000000e+00 0.000000e+00
1
Step 569000
Ar 1.063863e+00 0.000000e+00 0.000000e+00
1
Step 570000
Ar 1.068372e+00 0.000000e+00 0.000000e+00
1
Step 571000
Ar 1.069115e+00 0.000000e+00 0.000000e+00
1
Step 572000
Ar 1.066171e+00 0.000000e+00 0.000000e+00
1
Step 573000
Ar 1.063289e+00 0.000000e+00 0.000000e+00
1
Step 574000
Ar 1.067164e+00 0.000000e+00 0.000000e+00
1
Step 575000
Ar 1.257357e+00 0.000000e+00 0.000000e+00
1
Step 576000
Ar 1.254370e+00 0.000000e+00 0.000000e+00
1
Step 577000
Ar 1.270522e+00 0.000000e+00 0.000000e+00
1
Step 578000
Ar 1.276295e+00 0.000000e+00 0.000000e+00
1
Step 579000
Ar 1.319603e+00 0.000000e+00 0.000000e+00
1
Step 580000
Ar 1.317186e+00 0.000000e+00 0.000000e+00
1
Step 581000
Ar 1.292337e+00 0.000000e+00 0.000000e+00
1
Step 582000
Ar 1.294087e+00 0.000000e+00 0.000000e+00
1
Step 583000
Ar 1.273208e+00 0.000000e+00 0.000000e+00
1
Step 584000
Ar 1.288760e+00 0.000000e+00 0.000000e+00
1
Step 585000
Ar 1.282399e+00 0.000000e+00 0.000000e+00
1
Step 586000
Ar 1.297509e+00 0.000000e+00 0.000000e+00
1
Step 587000
Ar 1.324172e+00 0.000000e+00 0.000000e+00
1
Step 588000
Ar 8.240865e-01 0.000000e+00 0.000000e+00
1
Step 589000
Ar 8.828645e-01 0.000000e+00 0.000000e+00
1
Step 590000
Ar 8.621660e-01 0.000000e+00 0.000000e+00
1
Step 591000
Ar 8.470643e-01 0.000000e+00 0.000000e+00
1
Step 592000
Ar 8.446847e-01 0.000000e+00 0.000000e+00
1
Step 593000
Ar 8.617334e-01 0.000000e+00 0.000000e+00
1
Step 594000
Ar 9.482412e-01 0.000000e+00 0.000000e+00
1
Step 595000
Ar 9.473473e-01 0.000000e+00 0.000000e+00
1
Step 596000
Ar 9.515243e-01 0.000000e+00 0.000000e+00
1
Step 597000
Ar 9.453849e-01 0.000000e+00 0.000000e+00
1
Step 598000
Ar 9.464964e-01 0.000000e+00 0.000000e+00
1
Step 599000
Ar 9.457223e-01 0.000000e+00 0.000000e+00
1
Step 600000
Ar 9.447806e-01 0.000000e+00 0.000000e+00
1
Step 601000
Ar 9.472038e-01 0.000000e+00 0.000000e+00
1
Step 602000
Ar 9.469497e-01 0.000000e+00 0.000000e+00
1
Step 603000
Ar 9.148041e-01 0.000000e+00 0.000000e+00
1
Step 604000
Ar 9.188969e-01 0.000000e+00 0.000000e+00
1
Step 605000
Ar 9.175919e-01 0.000000e+00 0.000000e+00
1
Step 606000
Ar 9.173141e-01 0.000000e+00 0.000000e+00
1
Step 607000
Ar 9.110599e-01 0.000000e+00 0.000000e+00
1
Step 608000
Ar 9.176534e-01 0.000000e+00 0.000000e+00
1
Step 609000
Ar 9.119156e-01 0.000000e+00 0.000000e+00
1
Step 610000
Ar 9.123877e-01 0.000000e+00 0.000000e+00
1
Step 611000
Ar 9.081827e-01 0.000000e+00 0.000000e+00
1
Step 612000
Ar 9.480447e-01 0.000000e+00 0.000000e+00
1
Step 613000
Ar 9.424728e-01 0.000000e+00 0.000000e+00
1
Step 614000
Ar 9.478095e-01 0.000000e+00 0.000000e+00
1
Step 615000
Ar 8.208613e-01 0.000000e+00 0.000000e+00
1
Step 616000
Ar 8.214478e-01 0.000000e+00 0.000000e+00
1
Step 617000
Ar 8.255342e-01 0.000000e+00 0.000000e+00
1
Step 618000
Ar 8.680441e-01 0.000000e+00 0.000000e+00
1
Step 619000
Ar 8.673663e-01 0.000000e+00 0.000000e+00
1
Step 620000
Ar 8.628995e-01 0.000000e+00 0.000000e+00
1
Step 621000
Ar 8.332398e-01 0.000000e+00 0.000000e+00
1
Step 622000
Ar 1.068923e+00 0.000000e+00 0.000000e+00
1
Step 623000
Ar 1.063336e+00 0.000000e+00 0.000000e+00
1
Step 624000
Ar 1.067172e+00 0.000000e+00 0.000000e+00
1
Step 625000
Ar 9.204354e-01 0.000000e+00 0.000000e+00
1
Step 626000
Ar 1.195062e+00 0.000000e+00 0.000000e+00
1
Step 627000
Ar 1.194908e+00 0.000000e+00 0.000000e+00
1
Step 628000
Ar 1.193806e+00 0.000000e+00 0.000000e+00
1
Step 629000
Ar 1.173584e+00 0.000000e+00 0.000000e+00
1
Step 630000
Ar 1.202794e+00 0.000000e+00 0.000000e+00
1
Step 631000
Ar 1.171343e+00 0.000000e+00 0.000000e+00
1
Step 632000
Ar 1.164849e+00 0.000000e+00 0.000000e+00
1
Step 633000
Ar 1.180433e+00 0.000000e+00 0.000000e+00
1
Step 634000
Ar 1.197947e+00 0.000000e+00 0.000000e+00
1
Step 635000
Ar 1.199805e+00 0.000000e+00 0.000000e+00
1
Step 636000
Ar 1.195822e+00 0.000000e+00 0.000000e+00
1
Step 637000
Ar 1.196993e+00 0.000000e+00 0.000000e+00
1
Step 638000
Ar 1.195120e+00 0.000000e+00 0.000000e+00
1
Step 639000
Ar 1.201836e+00 0.000000e+00 0.000000e+00
1
Step 640000
Ar 1.201285e+00 0.000000e+00 0.000000e+00
1
Step 641000
Ar 1.204066e+00 0.000000e+00 0.000000e+00
1
Step 642000
Ar 1.196877e+00 0.000000e+00 0.000000e+00
1
Step 643000
Ar 1.197622e+00 0.000000e+00 0.000000e+00
1
Step 644000
Ar 1.089170e+00 0.000000e+00 0.000000e+00
1
Step 645000
Ar 1.086063e+00 0.000000e+00 0.000000e+00
1
Step 646000
Ar 1.084595e+00 0.000000e+00 0.000000e+00
1
Step 647000
Ar 1.080165e+00 0.000000e+00 0.000000e+00
1
Step 648000
Ar 9.728576e-01 0.000000e+00 0.000000e+00
1
Step 649000
Ar 1.112956e+00 0.000000e+00 0.000000e+00
1
Step 650000
Ar 1.111395e+00 0.000000e+00 0.000000e+00
1