1
Step 120000
Ar 1.005211e+00 0.000000e+00 0.000000e+00
1
Step 121000
Ar 1.003538e+00 0.000000e+00 0.000000e+00
1
Step 122000
Ar 9.943801e-01 0.000000e+00 0.000000e+00
1
Step 123000
Ar 1.001926e+00 0.000000e+00 0.000000e+00
1
Step 124000
Ar 1.021696e+00 0.000000e+00 0.000000e+00
1
Step 125000
Ar 1.003031e+00 0.000000e+00 0.000000e+00
1
Step 126000
Ar 9.873712e-01 0.000000e+00 0.000000e+00
1
Step 127000
Ar 9.885389e-01 0.000000e+00 0.000000e+00
1
Step 128000
Ar 9.940424e-01 0.000000e+00 0.000000e+00
1
Step 129000
Ar 9.735612e-01 0.000000e+00 0.000000e+00
1
Step 130000
Ar 9.759703e-01 0.000000e+00 0.000000e+00
1
Step 131000
Ar 1.015390e+00 0.000000e+00 0.000000e+00
1
Step 132000
Ar 1.024359e+00 0.000000e+00 0.000000e+00
1
Step 133000
Ar 1.025355e+00 0.000000e+00 0.000000e+00
1
Step 134000
Ar 1.025982e+00 0.000000e+00 0.000000e+00
1
Step 135000
Ar 1.015911e+00 0.000000e+00 0.000000e+00
1
Step 136000
Ar 1.028263e+00 0.000000e+00 0.000000e+00
1
Step 137000
Ar 1.028432e+00 0.000000e+00 0.000000e+00
1
Step 138000
Ar 1.037876e+00 0.000000e+00 0.000000e+00
1
Step 139000
Ar 1.025805e+00 0.000000e+00 0.000000e+00
1
Step 140000
Ar 1.042530e+00 0.000000e+00 0.000000e+00
1
Step 141000
Ar 9.895208e-01 0.000000e+00 0.000000e+00
1
Step 142000
Ar 9.923972e-01 0.000000e+00 0.000000e+00
1
Step 143000
Ar 9.871675e-01 0.000000e+00 0.000000e+00
1
Step 144000
Ar 9.924869e-01 0.000000e+00 0.000000e+00
1
Step 145000
Ar 9.883691e-01 0.000000e+00 0.000000e+00
1
Step 146000
Ar 1.054602e+00 0.000000e+00 0.000000e+00
1
Step 147000
Ar 1.054898e+00 0.000000e+00 0.000000e+00
1
Step 148000
Ar 1.053850e+00 0.000000e+00 0.000000e+00
1
Step 149000
Ar 1.050508e+00 0.000000e+00 0.000000e+00
1
Step 150000
Ar 1.051323e+00 0.000000e+00 0.000000e+00
1
Step 151000
Ar 9.609738e-01 0.000000e+00 0.000000e+00
1
Step 152000
Ar 9.642042e-01 0.000000e+00 0.000000e+00
1
Step 153000
Ar 9.583345e-01 0.000000e+00 0.000000e+00
1
Step 154000
Ar 9.645893e-01 0.000000e+00 0.000000e+00
1
Step 155000
Ar 9.585666e-01 0.000000e+00 0.000000e+00
1
Step 156000
Ar 9.508199e-01 0.000000e+00 0.000000e+00
1
Step 157000
Ar 9.501455e-01 0.000000e+00 0.000000e+00
1
Step 158000
Ar 9.454283e-01 0.000000e+00 0.000000e+00
1
Step 159000
Ar 9.472518e-01 0.000000e+00 0.000000e+00
1
Step 160000
Ar 9.451873e-01 0.000000e+00 0.000000e+00
1
Step 161000
Ar 1.028510e+00 0.000000e+00 0.000000e+00
1
Step 162000
Ar 1.030134e+00 0.000000e+00 0.000000e+00
1
Step 163000
Ar 1.029686e+00 0.000000e+00 0.000000e+00
1
Step 164000
Ar 1.026068e+00 0.000000e+00 0.000000e+00
1
Step 165000
Ar 1.023903e+00 0.000000e+00 0.000000e+00
1
Step 166000
Ar 9.252752e-01 0.000000e+00 0.000000e+00
1
Step 167000
Ar 9.326160e-01 0.000000e+00 0.000000e+00
1
Step 168000
Ar 9.316325e-01 0.000000e+00 0.000000e+00
1
Step 169000
Ar 9.272684e-01 0.000000e+00 0.000000e+00
1
Step 170000
Ar 9.367554e-01 0.000000e+00 0.000000e+00
1
Step 171000
Ar 9.270046e-01 0.000000e+00 0.000000e+00
1
Step 172000
Ar 9.242728e-01 0.000000e+00 0.000000e+00
1
Step 173000
Ar 9.246298e-01 0.000000e+00 0.000000e+00
1
Step 174000
Ar 9.281143e-01 0.000000e+00 0.000000e+00
1
Step 175000
Ar 9.184029e-01 0.000000e+00 0.000000e+00
1
Step 176000
Ar 8.831187e-01 0.000000e+00 0.000000e+00
1
Step 177000
Ar 9.282684e-01 0.000000e+00 0.000000e+00
1
Step 178000
Ar 9.427454e-01 0.000000e+00 0.000000e+00
1
Step 179000
Ar 1.003423e+00 0.000000e+00 0.000000e+00
1
Step 180000
Ar 1.067909e+00 0.000000e+00 0.000000e+00
1
Step 181000
Ar 9.876011e-01 0.000000e+00 0.000000e+00
1
Step 182000
Ar 9.690783e-01 0.000000e+00 0.000000e+00
1
Step 183000
Ar 9.084833e-01 0.000000e+00 0.000000e+00
1
Step 184000
Ar 9.043075e-01 0.000000e+00 0.000000e+00
1
Step 185000
Ar 9.076292e-01 0.000000e+00 0.000000e+00
1
Step 186000
Ar 9.969569e-01 0.000000e+00 0.000000e+00
1
Step 187000
Ar 8.948583e-01 0.000000e+00 0.000000e+00
1
Step 188000
Ar 8.992586e-01 0.000000e+00 0.000000e+00
1
Step 189000
Ar 8.952428e-01 0.000000e+00 0.000000e+00
1
Step 190000
Ar 8.879383e-01 0.000000e+00 0.000000e+00
1
Step 191000
Ar 9.768105e-01 0.000000e+00 0.000000e+00
1
Step 192000
Ar 1.154639e+00 0.000000e+00 0.000000e+00
1
Step 193000
Ar 8.981551e-01 0.000000e+00 0.000000e+00
1
Step 194000
Ar 9.956099e-01 0.000000e+00 0.000000e+00
1
Step 195000
Ar 9.992697e-01 0.000000e+00 0.000000e+00
1
Step 196000
Ar 8.780933e-01 0.000000e+00 0.000000e+00
1
Step 197000
Ar 8.758491e-01 0.000000e+00 0.000000e+00
1
Step 198000
Ar 8.777549e-01 0.000000e+00 0.000000e+00
1
Step 199000
Ar 7.873870e-01 0.000000e+00 0.000000e+00
1
Step 200000
Ar 1.082052e+00 0.000000e+00 0.000000e+00
1
Step 201000
Ar 9.011528e-01 0.000000e+00 0.000000e+00
1
Step 202000
Ar 1.060846e+00 0.000000e+00 0.000000e+00
1
Step 203000
Ar 8.968393e-01 0.000000e+00 0.000000e+00
1
Step 204000
Ar 9.101388e-01 0.000000e+00 0.000000e+00
1
Step 205000
Ar 1.076418e+00 0.000000e+00 0.000000e+00
1
Step 206000
Ar 1.150956e+00 0.000000e+00 0.000000e+00
1
Step 207000
Ar 9.628932e-01 0.000000e+00 0.000000e+00
1
Step 208000
Ar 1.004967e+00 0.000000e+00 0.000000e+00
1
Step 209000
Ar 7.507081e-01 0.000000e+00 0.000000e+00
1
Step 210000
Ar 7.933150e-01 0.000000e+00 0.000000e+00
1
Step 211000
Ar 1.091968e+00 0.000000e+00 0.000000e+00
1
Step 212000
Ar 1.100061e+00 0.000000e+00 0.000000e+00
1
Step 213000
Ar 1.092244e+00 0.000000e+00 0.000000e+00
1
Step 214000
Ar 1.090857e+00 0.000000e+00 0.000000e+00
1
Step 215000
Ar 1.095125e+00 0.000000e+00 0.000000e+00
1
Step 216000
Ar 1.098602e+00 0.000000e+00 0.000000e+00
1
Step 217000
Ar 1.031850e+00 0.000000e+00 0.000000e+00
1
Step 218000
Ar 1.055541e+00 0.000000e+00 0.000000e+00
1
Step 219000
Ar 1.105884e+00 0.000000e+00 0.000000e+00
1
Step 220000
Ar 1.100415e+00 0.000000e+00 0.000000e+00
1
Step 221000
Ar 1.111117e+00 0.000000e+00 0.000000e+00
1
Step 222000
Ar 1.109959e+00 0.000000e+00 0.000000e+00
1
Step 223000
Ar 1.040758e+00 0.000000e+00 0.000000e+00
1
Step 224000
Ar 9.715396e-01 0.000000e+00 0.000000e+00
1
Step 225000
Ar 1.094280e+00 0.000000e+00 0.000000e+00
1
Step 226000
Ar 1.080873e+00 0.000000e+00 0.000000e+00
1
Step 227000
Ar 9.859291e-01 0.000000e+00 0.000000e+00
1
Step 228000
Ar 9.786212e-01 0.000000e+00 0.000000e+00
1
Step 229000
Ar 8.766868e-01 0.000000e+00 0.000000e+00
1
Step 230000
Ar 1.019729e+00 0.000000e+00 0.000000e+00
1
Step 231000
Ar 1.095749e+00 0.000000e+00 0.000000e+00
1
Step 232000
Ar 9.805951e-01 0.000000e+00 0.000000e+00
1
Step 233000
Ar 1.111232e+00 0.000000e+00 0.000000e+00
1
Step 234000
Ar 1.055393e+00 0.000000e+00 0.000000e+00
1
Step 235000
Ar 1.047102e+00 0.000000e+00 0.000000e+00
1
Step 236000
Ar 1.034166e+00 0.000000e+00 0.000000e+00
1
Step 237000
Ar 9.339586e-01 0.000000e+00 0.000000e+00
1
Step 238000
Ar 7.272176e-01 0.000000e+00 0.000000e+00
1
Step 239000
Ar 8.767269e-01 0.000000e+00 0.000000e+00
1
Step 240000
Ar 8.775719e-01 0.000000e+00 0.000000e+00
1
Step 241000
Ar 9.077598e-01 0.000000e+00 0.000000e+00
1
Step 242000
Ar 9.657573e-01 0.000000e+00 0.000000e+00
1
Step 243000
Ar 1.112540e+00 0.000000e+00 0.000000e+00
1
Step 244000
Ar 8.706484e-01 0.000000e+00 0.000000e+00
1
Step 245000
Ar 8.654988e-01 0.000000e+00 0.000000e+00
1
Step 246000
Ar 9.637955e-01 0.000000e+00 0.000000e+00
1
Step 247000
Ar 9.757974e-01 0.000000e+00 0.000000e+00
1
Step 248000
Ar 1.029991e+00 0.000000e+00 0.000000e+00
1
Step 249000
Ar 1.037558e+00 0.000000e+00 0.000000e+00
1
Step 250000
Ar 7.243579e-01 0.000000e+00 0.000000e+00
1
Step 251000
Ar 7.080303e-01 0.000000e+00 0.000000e+00
1
Step 252000
Ar 9.699057e-01 0.000000e+00 0.000000e+00
1
Step 253000
Ar 9.251939e-01 0.000000e+00 0.000000e+00
1
Step 254000
Ar 9.260266e-01 0.000000e+00 0.000000e+00
1
Step 255000
Ar 1.084928e+00 0.000000e+00 0.000000e+00
1
Step 256000
Ar 1.059966e+00 0.000000e+00 0.000000e+00
1
Step 257000
Ar 8.494749e-01 0.000000e+00 0.000000e+00
1
Step 258000
Ar 1.107145e+00 0.000000e+00 0.000000e+00
1
Step 259000
Ar 1.109353e+00 0.000000e+00 0.000000e+00
1
Step 260000
Ar 1.111172e+00 0.000000e+00 0.000000e+00
1
Step 261000
Ar 1.121477e+00 0.000000e+00 0.000000e+00
1
Step 262000
Ar 1.122231e+00 0.000000e+00 0.000000e+00
1
Step 263000
Ar 9.667792e-01 0.000000e+00 0.000000e+00
1
Step 264000
Ar 6.864588e-01 0.000000e+00 0.000000e+00
1
Step 265000
Ar 8.563592e-01 0.000000e+00 0.000000e+00
1
Step 266000
Ar 8.446774e-01 0.000000e+00 0.000000e+00
1
Step 267000
Ar 8.469505e-01 0.000000e+00 0.000000e+00
1
Step 268000
Ar 8.454528e-01 0.000000e+00 0.000000e+00
1
Step 269000
Ar 9.623315e-01 0.000000e+00 0.000000e+00
1
Step 270000
Ar 1.197077e+00 0.000000e+00 0.000000e+00
1
Step 271000
Ar 9.667634e-01 0.000000e+00 0.000000e+00
1
Step 272000
Ar 7.279465e-01 0.000000e+00 0.000000e+00
1
Step 273000
Ar 7.148742e-01 0.000000e+00 0.000000e+00
1
Step 274000
Ar 1.147967e+00 0.000000e+00 0.000000e+00
1
Step 275000
Ar 8.968141e-01 0.000000e+00 0.000000e+00
1
Step 276000
Ar 9.258844e-01 0.000000e+00 0.000000e+00
1
Step 277000
Ar 8.452665e-01 0.000000e+00 0.000000e+00
1
Step 278000
Ar 8.461812e-01 0.000000e+00 0.000000e+00
1
Step 279000
Ar 8.521870e-01 0.000000e+00 0.000000e+00
1
Step 280000
Ar 7.202141e-01 0.000000e+00 0.000000e+00
1
Step 281000
Ar 8.950345e-01 0.000000e+00 0.000000e+00
1
Step 282000
Ar 1.000358e+00 0.000000e+00 0.000000e+00
1
Step 283000
Ar 9.954054e-01 0.000000e+00 0.000000e+00
1
Step 284000
Ar 1.030788e+00 0.000000e+00 0.000000e+00
1
Step 285000
Ar 1.127442e+00 0.000000e+00 0.000000e+00
1
Step 286000
Ar 9.379806e-01 0.000000e+00 0.000000e+00
1
Step 287000
Ar 8.192940e-01 0.000000e+00 0.000000e+00
1
Step 288000
Ar 1.032181e+00 0.000000e+00 0.000000e+00
1
Step 289000
Ar 1.033028e+00 0.000000e+00 0.000000e+00
1
Step 290000
Ar 1.168742e+00 0.000000e+00 0.000000e+00
1
Step 291000
Ar 8.491435e-01 0.000000e+00 0.000000e+00
1
Step 292000
Ar 8.450412e-01 0.000000e+00 0.000000e+00
1
Step 293000
Ar 8.446367e-01 0.000000e+00 0.000000e+00
1
Step 294000
Ar 9.234347e-01 0.000000e+00 0.000000e+00
1
Step 295000
Ar 9.549769e-01 0.000000e+00 0.000000e+00
1
Step 296000
Ar 9.991608e-01 0.000000e+00 0.000000e+00
1
Step 297000
Ar 9.677242e-01 0.000000e+00 0.000000e+00
1
Step 298000
Ar 1.175318e+00 0.000000e+00 0.000000e+00
1
Step 299000
Ar 9.037989e-01 0.000000e+00 0.000000e+00
1
Step 300000
Ar 9.670490e-01 0.000000e+00 0.000000e+00
1
Step 301000
Ar 9.454760e-01 0.000000e+00 0.000000e+00
1
Step 302000
Ar 9.288234e-01 0.000000e+00 0.000000e+00
1
Step 303000
Ar 9.847590e-01 0.000000e+00 0.000000e+00
1
Step 304000
Ar 9.827268e-01 0.000000e+00 0.000000e+00
1
Step 305000
Ar 8.920907e-01 0.000000e+00 0.000000e+00
1
Step 306000
Ar 8.796431e-01 0.000000e+00 0.000000e+00
1
Step 307000
Ar 8.833861e-01 0.000000e+00 0.000000e+00
1
Step 308000
Ar 8.808984e-01 0.000000e+00 0.000000e+00
1
Step 309000
Ar 8.759737e-01 0.000000e+00 0.000000e+00
1
Step 310000
Ar 8.834185e-01 0.000000e+00 0.000000e+00
1
Step 311000
Ar 9.830299e-01 0.000000e+00 0.000000e+00
1
Step 312000
Ar 9.879456e-01 0.000000e+00 0.000000e+00
1
Step 313000
Ar 9.814580e-01 0.000000e+00 0.000000e+00
1
Step 314000
Ar 8.929283e-01 0.000000e+00 0.000000e+00
1
Step 315000
Ar 8.975020e-01 0.000000e+00 0.000000e+00
1
Step 316000
Ar 9.834036e-01 0.000000e+00 0.000000e+00
1
Step 317000
Ar 9.811122e-01 0.000000e+00 0.000000e+00
1
Step 318000
Ar 9.860799e-01 0.000000e+00 0.000000e+00
1
Step 319000
Ar 7.162989e-01 0.000000e+00 0.000000e+00
1
Step 320000
Ar 9.811588e-01 0.000000e+00 0.000000e+00
1
Step 321000
Ar 8.500585e-01 0.000000e+00 0.000000e+00
1
Step 322000
Ar 8.457709e-01 0.000000e+00 0.000000e+00
1
Step 323000
Ar 9.700076e-01 0.000000e+00 0.000000e+00
1
Step 324000
Ar 9.682420e-01 0.000000e+00 0.000000e+00
1
Step 325000
Ar 8.974160e-01 0.000000e+00 0.000000e+00
1
Step 326000
Ar 9.471756e-01 0.000000e+00 0.000000e+00
1
Step 327000
Ar 9.292749e-01 0.000000e+00 0.000000e+00
1
Step 328000
Ar 9.121946e-01 0.000000e+00 0.000000e+00
1
Step 329000
Ar 1.019604e+00 0.000000e+00 0.000000e+00
1
Step 330000
Ar 9.641831e-01 0.000000e+00 0.000000e+00
1
Step 331000
Ar 8.447208e-01 0.000000e+00 0.000000e+00
1
Step 332000
Ar 8.498843e-01 0.000000e+00 0.000000e+00
1
Step 333000
Ar 8.504859e-01 0.000000e+00 0.000000e+00
1
Step 334000
Ar 8.509173e-01 0.000000e+00 0.000000e+00
1
Step 335000
Ar 8.460818e-01 0.000000e+00 0.000000e+00
1
Step 336000
Ar 1.147696e+00 0.000000e+00 0.000000e+00
1
Step 337000
Ar 5.388371e-01 0.000000e+00 0.000000e+00
1
Step 338000
Ar 1.080120e+00 0.000000e+00 0.000000e+00
1
Step 339000
Ar 1.224414e+00 0.000000e+00 0.000000e+00
1
Step 340000
Ar 1.011305e+00 0.000000e+00 0.000000e+00
1
Step 341000
Ar 9.443365e-01 0.000000e+00 0.000000e+00
1
Step 342000
Ar 9.922035e-01 0.000000e+00 0.000000e+00
1
Step 343000
Ar 1.194842e+00 0.000000e+00 0.000000e+00
1
Step 344000
Ar 6.693878e-01 0.000000e+00 0.000000e+00
1
Step 345000
Ar 9.426315e-01 0.000000e+00 0.000000e+00
1
Step 346000
Ar 8.526102e-01 0.000000e+00 0.000000e+00
1
Step 347000
Ar 9.414157e-01 0.000000e+00 0.000000e+00
1
Step 348000
Ar 8.691960e-01 0.000000e+00 0.000000e+00
1
Step 349000
Ar 7.140154e-01 0.000000e+00 0.000000e+00
1
Step 350000
Ar 7.263992e-01 0.000000e+00 0.000000e+00
1
Step 351000
Ar 1.027709e+00 0.000000e+00 0.000000e+00
1
Step 352000
Ar 7.976003e-01 0.000000e+00 0.000000e+00
1
Step 353000
Ar 9.921154e-01 0.000000e+00 0.000000e+00
1
Step 354000
Ar 1.082191e+00 0.000000e+00 0.000000e+00
1
Step 355000
Ar 1.073077e+00 0.000000e+00 0.000000e+00
1
Step 356000
Ar 9.674432e-01 0.000000e+00 0.000000e+00
1
Step 357000
Ar 5.454214e-01 0.000000e+00 0.000000e+00
1
Step 358000
Ar 1.247486e+00 0.000000e+00 0.000000e+00
1
Step 359000
Ar 1.021608e+00 0.000000e+00 0.000000e+00
1
Step 360000
Ar 9.674715e-01 0.000000e+00 0.000000e+00
1
Step 361000
Ar 8.526285e-01 0.000000e+00 0.000000e+00
1
Step 362000
Ar 8.799400e-01 0.000000e+00 0.000000e+00
1
Step 363000
Ar 8.381343e-01 0.000000e+00 0.000000e+00
1
Step 364000
Ar 1.009664e+00 0.000000e+00 0.000000e+00
1
Step 365000
Ar 8.412046e-01 0.000000e+00 0.000000e+00
1
Step 366000
Ar 1.181095e+00 0.000000e+00 0.000000e+00
1
Step 367000
Ar 1.007503e+00 0.000000e+00 0.000000e+00
1
Step 368000
Ar 9.890407e-01 0.000000e+00 0.000000e+00
1
Step 369000
Ar 1.092878e+00 0.000000e+00 0.000000e+00
1
Step 370000
Ar 1.114235e+00 0.000000e+00 0.000000e+00
1
Step 371000
Ar 8.255741e-01 0.000000e+00 0.000000e+00
1
Step 372000
Ar 8.895815e-01 0.000000e+00 0.000000e+00
1
Step 373000
Ar 9.052649e-01 0.000000e+00 0.000000e+00
1
Step 374000
Ar 1.031886e+00 0.000000e+00 0.000000e+00
1
Step 375000
Ar 8.441899e-01 0.000000e+00 0.000000e+00
1
Step 376000
Ar 8.179718e-01 0.000000e+00 0.000000e+00
1
Step 377000
Ar 8.301030e-01 0.000000e+00 0.000000e+00
1
Step 378000
Ar 8.318209e-01 0.000000e+00 0.000000e+00
1
Step 379000
Ar 8.269175e-01 0.000000e+00 0.000000e+00
1
Step 380000
Ar 8.302436e-01 0.000000e+00 0.000000e+00
1
Step 381000
Ar 1.098443e+00 0.000000e+00 0.000000e+00
1
Step 382000
Ar 9.373922e-01 0.000000e+00 0.000000e+00
1
Step 383000
Ar 8.229127e-01 0.000000e+00 0.000000e+00
1
Step 384000
Ar 8.192361e-01 0.000000e+00 0.000000e+00
1
Step 385000
Ar 8.221035e-01 0.000000e+00 0.000000e+00
1
Step 386000
Ar 1.033380e+00 0.000000e+00 0.000000e+00
1
Step 387000
Ar 1.135513e+00 0.000000e+00 0.000000e+00
1
Step 388000
Ar 9.892629e-01 0.000000e+00 0.000000e+00
1
Step 389000
Ar 1.039099e+00 0.000000e+00 0.000000e+00
1
Step 390000
Ar 9.375423e-01 0.000000e+00 0.000000e+00
1
Step 391000
Ar 8.764548e-01 0.000000e+00 0.000000e+00
1
Step 392000
Ar 1.000347e+00 0.000000e+00 0.000000e+00
1
Step 393000
Ar 1.195563e+00 0.000000e+00 0.000000e+00
1
Step 394000
Ar 1.062329e+00 0.000000e+00 0.000000e+00
1
Step 395000
Ar 9.217118e-01 0.000000e+00 0.000000e+00
1
Step 396000
Ar 1.047680e+00 0.000000e+00 0.000000e+00
1
Step 397000
Ar 8.625123e-01 0.000000e+00 0.000000e+00
1
Step 398000
Ar 5.017067e-01 0.000000e+00 0.000000e+00
1
Step 399000
Ar 1.197221e+00 0.000000e+00 0.000000e+00
1
Step 400000
Ar 8.590860e-01 0.000000e+00 0.000000e+00
1
Step 401000
Ar 1.035119e+00 0.000000e+00 0.000000e+00
1
Step 402000
Ar 9.915257e-01 0.000000e+00 0.000000e+00
1
Step 403000
Ar 1.007509e+00 0.000000e+00 0.000000e+00
1
Step 404000
Ar 9.346500e-01 0.000000e+00 0.000000e+00
1
Step 405000
Ar 8.627650e-01 0.000000e+00 0.000000e+00
1
Step 406000
Ar 1.019580e+00 0.000000e+00 0.000000e+00
1
Step 407000
Ar 8.832413e-01 0.000000e+00 0.000000e+00
1
Step 408000
Ar 8.734041e-01 0.000000e+00 0.000000e+00
1
Step 409000
Ar 9.419383e-01 0.000000e+00 0.000000e+00
1
Step 410000
Ar 1.122682e+00 0.000000e+00 0.000000e+00
1
Step 411000
Ar 1.120034e+00 0.000000e+00 0.000000e+00
1
Step 412000
Ar 9.720884e-01 0.000000e+00 0.000000e+00
1
Step 413000
Ar 7.810616e-01 0.000000e+00 0.000000e+00
1
Step 414000
Ar 1.063283e+00 0.000000e+00 0.000000e+00
1
Step 415000
Ar -1.000077e+00 0.000000e+00 0.000000e+00
1
Step 416000
Ar -1.011340e+00 0.000000e+00 0.000000e+00
1
Step 417000
Ar -1.014663e+00 0.000000e+00 0.000000e+00
1
Step 418000
Ar -1.015792e+00 0.000000e+00 0.000000e+00
1
Step 419000
Ar -1.029676e+00 0.000000e+00 0.000000e+00
1
Step 420000
Ar -1.011352e+00 0.000000e+00 0.000000e+00
1
Step 421000
Ar -9.758384e-01 0.000000e+00 0.000000e+00
1
Step 422000
Ar -9.846079e-01 0.000000e+00 0.000000e+00
1
Step 423000
Ar -9.840123e-01 0.000000e+00 0.000000e+00
1
Step 424000
Ar -9.870683e-01 0.000000e+00 0.000000e+00
1
Step 425000
Ar -9.800546e-01 0.000000e+00 0.000000e+00
1
Step 426000
Ar -1.033718e+00 0.000000e+00 0.000000e+00
1
Step 427000
Ar -1.025445e+00 0.000000e+00 0.000000e+00
1
Step 428000
Ar -1.033843e+00 0.000000e+00 0.000000e+00
1
Step 429000
Ar -1.026603e+00 0.000000e+00 0.000000e+00
1
Step 430000
Ar -1.032723e+00 0.000000e+00 0.000000e+00
1
Step 431000
Ar -9.630618e-01 0.000000e+00 0.000000e+00
1
Step 432000
Ar -9.618863e-01 0.000000e+00 0.000000e+00
1
Step 433000
Ar -9.673198e-01 0.000000e+00 0.000000e+00
1
Step 434000
Ar -9.648539e-01 0.000000e+00 0.000000e+00
1
Step 435000
Ar -9.616278e-01 0.000000e+00 0.000000e+00
1
Step 436000
Ar -9.926332e-01 0.000000e+00 0.000000e+00
1
Step 437000
Ar -9.862079e-01 0.000000e+00 0.000000e+00
1
Step 438000
Ar -1.047685e+00 0.000000e+00 0.000000e+00
1
Step 439000
Ar -1.046755e+00 0.000000e+00 0.000000e+00
1
Step 440000
Ar -1.047558e+00 0.000000e+00 0.000000e+00
1
Step 441000
Ar -1.058141e+00 0.000000e+00 0.000000e+00
1
Step 442000
Ar -1.055871e+00 0.000000e+00 0.000000e+00
1
Step 443000
Ar -1.058608e+00 0.000000e+00 0.000000e+00
1
Step 444000
Ar -1.058969e+00 0.000000e+00 0.000000e+00
1
Step 445000
Ar -1.058037e+00 0.000000e+00 0.000000e+00
1
Step 446000
Ar -1.069685e+00 0.000000e+00 0.000000e+00
1
Step 447000
Ar -1.068062e+00 0.000000e+00 0.000000e+00
1
Step 448000
Ar -1.073037e+00 0.000000e+00 0.000000e+00
1
Step 449000
Ar -1.073918e+00 0.000000e+00 0.000000e+00
1
Step 450000
Ar -1.067196e+00 0.000000e+00 0.000000e+00
1
Step 451000
Ar -1.017192e+00 0.000000e+00 0.000000e+00
1
Step 452000
Ar -9.496424e-01 0.000000e+00 0.000000e+00
1
Step 453000
Ar -9.499966e-01 0.000000e+00 0.000000e+00
1
Step 454000
Ar -9.497286e-01 0.000000e+00 0.000000e+00
1
Step 455000
Ar -9.453247e-01 0.000000e+00 0.000000e+00
1
Step 456000
Ar -9.862019e-01 0.000000e+00 0.000000e+00
1
Step 457000
Ar -9.967426e-01 0.000000e+00 0.000000e+00
1
Step 458000
Ar -9.882515e-01 0.000000e+00 0.000000e+00
1
Step 459000
Ar -9.858643e-01 0.000000e+00 0.000000e+00
1
Step 460000
Ar -9.925564e-01 0.000000e+00 0.000000e+00
1
Step 461000
Ar -9.352843e-01 0.000000e+00 0.000000e+00
1
Step 462000
Ar -9.290774e-01 0.000000e+00 0.000000e+00
1
Step 463000
Ar -9.323759e-01 0.000000e+00 0.000000e+00
1
Step 464000
Ar -9.315087e-01 0.000000e+00 0.000000e+00
1
Step 465000
Ar -9.335301e-01 0.000000e+00 0.000000e+00
1
Step 466000
Ar -9.109304e-01 0.000000e+00 0.000000e+00
1
Step 467000
Ar -9.140634e-01 0.000000e+00 0.000000e+00
1
Step 468000
Ar -9.207205e-01 0.000000e+00 0.000000e+00
1
Step 469000
Ar -9.248671e-01 0.000000e+00 0.000000e+00
1
Step 470000
Ar -9.186989e-01 0.000000e+00 0.000000e+00
1
Step 471000
Ar -8.490640e-01 0.000000e+00 0.000000e+00
1
Step 472000
Ar -1.039386e+00 0.000000e+00 0.000000e+00
1
Step 473000
Ar -1.146397e+00 0.000000e+00 0.000000e+00
1
Step 474000
Ar -1.022561e+00 0.000000e+00 0.000000e+00
1
Step 475000
Ar -1.023526e+00 0.000000e+00 0.000000e+00
1
Step 476000
Ar -1.013740e+00 0.000000e+00 0.000000e+00
1
Step 477000
Ar -1.012729e+00 0.000000e+00 0.000000e+00
1
Step 478000
Ar -1.017219e+00 0.000000e+00 0.000000e+00
1
Step 479000
Ar -1.015842e+00 0.000000e+00 0.000000e+00
1
Step 480000
Ar -1.003968e+00 0.000000e+00 0.000000e+00
1
Step 481000
Ar -8.905075e-01 0.000000e+00 0.000000e+00
1
Step 482000
Ar -1.076822e+00 0.000000e+00 0.000000e+00
1
Step 483000
Ar -1.074772e+00 0.000000e+00 0.000000e+00
1
Step 484000
Ar -1.078932e+00 0.000000e+00 0.000000e+00
1
Step 485000
Ar -1.080737e+00 0.000000e+00 0.000000e+00
1
Step 486000
Ar -9.113253e-01 0.000000e+00 0.000000e+00
1
Step 487000
Ar -9.069180e-01 0.000000e+00 0.000000e+00
1
Step 488000
Ar -9.074239e-01 0.000000e+00 0.000000e+00
1
Step 489000
Ar -9.057567e-01 0.000000e+00 0.000000e+00
1
Step 490000
Ar -9.066238e-01 0.000000e+00 0.000000e+00
1
Step 491000
Ar -1.018277e+00 0.000000e+00 0.000000e+00
1
Step 492000
Ar -1.064397e+00 0.000000e+00 0.000000e+00
1
Step 493000
Ar -7.267556e-01 0.000000e+00 0.000000e+00
1
Step 494000
Ar -9.530466e-01 0.000000e+00 0.000000e+00
1
Step 495000
Ar -9.680586e-01 0.000000e+00 0.000000e+00
1
Step 496000
Ar -9.528099e-01 0.000000e+00 0.000000e+00
1
Step 497000
Ar -9.746200e-01 0.000000e+00 0.000000e+00
1
Step 498000
Ar -9.857599e-01 0.000000e+00 0.000000e+00
1
Step 499000
Ar -9.852610e-01 0.000000e+00 0.000000e+00
1
Step 500000
Ar -9.851947e-01 0.000000e+00 0.000000e+00
1
Step 501000
Ar -9.541409e-01 0.000000e+00 0.000000e+00
1
Step 502000
Ar -9.931221e-01 0.000000e+00 0.000000e+00
1
Step 503000
Ar -9.705241e-01 0.000000e+00 0.000000e+00
1
Step 504000
Ar -1.072780e+00 0.000000e+00 0.000000e+00
1
Step 505000
Ar -9.121052e-01 0.000000e+00 0.000000e+00
1
Step 506000
Ar -8.611560e-01 0.000000e+00 0.000000e+00
1
Step 507000
Ar -1.088162e+00 0.000000e+00 0.000000e+00
1
Step 508000
Ar -1.095114e+00 0.000000e+00 0.000000e+00
1
Step 509000
Ar -1.018012e+00 0.000000e+00 0.000000e+00
1
Step 510000
Ar -1.016020e+00 0.000000e+00 0.000000e+00
1
Step 511000
Ar -1.035974e+00 0.000000e+00 0.000000e+00
1
Step 512000
Ar -1.038717e+00 0.000000e+00 0.000000e+00
1
Step 513000
Ar -9.493291e-01 0.000000e+00 0.000000e+00
1
Step 514000
Ar -1.043421e+00 0.000000e+00 0.000000e+00
1
Step 515000
Ar -8.371451e-01 0.000000e+00 0.000000e+00
1
Step 516000
Ar -8.950529e-01 0.000000e+00 0.000000e+00
1
Step 517000
Ar -8.972842e-01 0.000000e+00 0.000000e+00
1
Step 518000
Ar -8.953275e-01 0.000000e+00 0.000000e+00
1
Step 519000
Ar -8.977366e-01 0.000000e+00 0.000000e+00
1
Step 520000
Ar -8.929517e-01 0.000000e+00 0.000000e+00
1
Step 521000
Ar -1.081208e+00 0.000000e+00 0.000000e+00
1
Step 522000
Ar -8.834912e-01 0.000000e+00 0.000000e+00
1
Step 523000
Ar -8.826894e-01 0.000000e+00 0.000000e+00
1
Step 524000
Ar -1.091309e+00 0.000000e+00 0.000000e+00
1
Step 525000
Ar -1.087451e+00 0.000000e+00 0.000000e+00
1
Step 526000
Ar -8.751341e-01 0.000000e+00 0.000000e+00
1
Step 527000
Ar -9.458508e-01 0.000000e+00 0.000000e+00
1
Step 528000
Ar -9.083649e-01 0.000000e+00 0.000000e+00
1
Step 529000
Ar -1.094187e+00 0.000000e+00 0.000000e+00
1
Step 530000
Ar -1.096072e+00 0.000000e+00 0.000000e+00
1
Step 531000
Ar -8.417611e-01 0.000000e+00 0.000000e+00
1
Step 532000
Ar -9.849081e-01 0.000000e+00 0.000000e+00
1
Step 533000
Ar -9.705699e-01 0.000000e+00 0.000000e+00
1
Step 534000
Ar -1.103598e+00 0.000000e+00 0.000000e+00
1
Step 535000
Ar -1.105333e+00 0.000000e+00 0.000000e+00
1
Step 536000
Ar -1.115473e+00 0.000000e+00 0.000000e+00
1
Step 537000
Ar -1.100610e+00 0.000000e+00 0.000000e+00
1
Step 538000
Ar -1.070104e+00 0.000000e+00 0.000000e+00
1
Step 539000
Ar -1.052941e+00 0.000000e+00 0.000000e+00
1
Step 540000
Ar -9.954371e-01 0.000000e+00 0.000000e+00
1
Step 541000
Ar -1.117584e+00 0.000000e+00 0.000000e+00
1
Step 542000
Ar -1.114564e+00 0.000000e+00 0.000000e+00
1
Step 543000
Ar -9.697839e-01 0.000000e+00 0.000000e+00
1
Step 544000
Ar -1.020612e+00 0.000000e+00 0.000000e+00
1
Step 545000
Ar -1.033251e+00 0.000000e+00 0.000000e+00
1
Step 546000
Ar -1.021659e+00 0.000000e+00 0.000000e+00
1
Step 547000
Ar -1.020508e+00 0.000000e+00 0.000000e+00
1
Step 548000
Ar -1.022817e+00 0.000000e+00 0.000000e+00
1
Step 549000
Ar -1.025345e+00 0.000000e+00 0.000000e+00
1
Step 550000
Ar -1.021322e+00 0.000000e+00 0.000000e+00
1
Step 551000
Ar -8.296960e-01 0.000000e+00 0.000000e+00
1
Step 552000
Ar -1.107053e+00 0.000000e+00 0.000000e+00
1
Step 553000
Ar -1.101129e+00 0.000000e+00 0.000000e+00
1
Step 554000
Ar -1.053528e+00 0.000000e+00 0.000000e+00
1
Step 555000
Ar -1.034439e+00 0.000000e+00 0.000000e+00
1
Step 556000
Ar -8.194281e-01 0.000000e+00 0.000000e+00
1
Step 557000
Ar -9.609636e-01 0.000000e+00 0.000000e+00
1
Step 558000
Ar -1.007084e+00 0.000000e+00 0.000000e+00
1
Step 559000
Ar -1.002555e+00 0.000000e+00 0.000000e+00
1
Step 560000
Ar -1.097340e+00 0.000000e+00 0.000000e+00
1
Step 561000
Ar -1.115443e+00 0.000000e+00 0.000000e+00
1
Step 562000
Ar -1.114913e+00 0.000000e+00 0.000000e+00
1
Step 563000
Ar -1.115483e+00 0.000000e+00 0.000000e+00
1
Step 564000
Ar -1.121905e+00 0.000000e+00 0.000000e+00
1
Step 565000
Ar -1.114370e+00 0.000000e+00 0.000000e+00
1
Step 566000
Ar -9.425973e-01 0.000000e+00 0.000000e+00
1
Step 567000
Ar -1.005268e+00 0.000000e+00 0.000000e+00
1
Step 568000
Ar -1.014225e+00 0.000000e+00 0.000000e+00
1
Step 569000
Ar -1.124841e+00 0.000000e+00 0.000000e+00
1
Step 570000
Ar -1.104596e+00 0.000000e+00 0.000000e+00
1
Step 571000
Ar -9.196983e-01 0.000000e+00 0.000000e+00
1
Step 572000
Ar -8.867492e-01 0.000000e+00 0.000000e+00
1
Step 573000
Ar -1.010094e+00 0.000000e+00 0.000000e+00
1
Step 574000
Ar -1.008220e+00 0.000000e+00 0.000000e+00
1
Step 575000
Ar -9.965298e-01 0.000000e+00 0.000000e+00
1
Step 576000
Ar -1.027433e+00 0.000000e+00 0.000000e+00
1
Step 577000
Ar -8.875911e-01 0.000000e+00 0.000000e+00
1
Step 578000
Ar -9.087653e-01 0.000000e+00 0.000000e+00
1
Step 579000
Ar -1.122967e+00 0.000000e+00 0.000000e+00
1
Step 580000
Ar -1.121779e+00 0.000000e+00 0.000000e+00
1
Step 581000
Ar -1.128939e+00 0.000000e+00 0.000000e+00
1
Step 582000
Ar -1.126814e+00 0.000000e+00 0.000000e+00
1
Step 583000
Ar -1.130584e+00 0.000000e+00 0.000000e+00
1
Step 584000
Ar -1.133784e+00 0.000000e+00 0.000000e+00
1
Step 585000
Ar -1.125231e+00 0.000000e+00 0.000000e+00
1
Step 586000
Ar -1.074667e+00 0.000000e+00 0.000000e+00
1
Step 587000
Ar -1.111497e+00 0.000000e+00 0.000000e+00
1
Step 588000
Ar -1.112846e+00 0.000000e+00 0.000000e+00
1
Step 589000
Ar -9.230171e-01 0.000000e+00 0.000000e+00
1
Step 590000
Ar -1.008727e+00 0.000000e+00 0.000000e+00
1
Step 591000
Ar -8.814439e-01 0.000000e+00 0.000000e+00
1
Step 592000
Ar -8.840454e-01 0.000000e+00 0.000000e+00
1
Step 593000
Ar -8.831276e-01 0.000000e+00 0.000000e+00
1
Step 594000
Ar -8.819951e-01 0.000000e+00 0.000000e+00
1
Step 595000
Ar -8.819768e-01 0.000000e+00 0.000000e+00
1
Step 596000
Ar -8.686776e-01 0.000000e+00 0.000000e+00
1
Step 597000
Ar -1.051160e+00 0.000000e+00 0.000000e+00
1
Step 598000
Ar -1.136510e+00 0.000000e+00 0.000000e+00
1
Step 599000
Ar -1.165443e+00 0.000000e+00 0.000000e+00
1
Step 600000
Ar -8.677135e-01 0.000000e+00 0.000000e+00
1
Step 601000
Ar -9.238606e-01 0.000000e+00 0.000000e+00
1
Step 602000
Ar -9.974208e-01 0.000000e+00 0.000000e+00
1
Step 603000
Ar -9.541964e-01 0.000000e+00 0.000000e+00
1
Step 604000
Ar -7.004156e-01 0.000000e+00 0.000000e+00
1
Step 605000
Ar -8.577522e-01 0.000000e+00 0.000000e+00
1
Step 606000
Ar -1.135877e+00 0.000000e+00 0.000000e+00
1
Step 607000
Ar -1.027507e+00 0.000000e+00 0.000000e+00
1
Step 608000
Ar -8.812009e-01 0.000000e+00 0.000000e+00
1
Step 609000
Ar -9.078909e-01 0.000000e+00 0.000000e+00
1
Step 610000
Ar -1.064464e+00 0.000000e+00 0.000000e+00
1
Step 611000
Ar -1.134223e+00 0.000000e+00 0.000000e+00
1
Step 612000
Ar -1.053296e+00 0.000000e+00 0.000000e+00
1
Step 613000
Ar -1.152519e+00 0.000000e+00 0.000000e+00
1
Step 614000
Ar -9.406744e-01 0.000000e+00 0.000000e+00
1
Step 615000
Ar -1.132640e+00 0.000000e+00 0.000000e+00
1
Step 616000
Ar -8.989779e-01 0.000000e+00 0.000000e+00
1
Step 617000
Ar -6.467053e-01 0.000000e+00 0.000000e+00
1
Step 618000
Ar -1.025521e+00 0.000000e+00 0.000000e+00
1
Step 619000
Ar -1.024021e+00 0.000000e+00 0.000000e+00
1
Step 620000
Ar -1.023179e+00 0.000000e+00 0.000000e+00
1
Step 621000
Ar -9.714284e-01 0.000000e+00 0.000000e+00
1
Step 622000
Ar -1.035777e+00 0.000000e+00 0.000000e+00
1
Step 623000
Ar -1.004186e+00 0.000000e+00 0.000000e+00
1
Step 624000
Ar -1.013132e+00 0.000000e+00 0.000000e+00
1
Step 625000
Ar -1.009506e+00 0.000000e+00 0.000000e+00
1
Step 626000
Ar -8.988387e-01 0.000000e+00 0.000000e+00
1
Step 627000
Ar -8.524036e-01 0.000000e+00 0.000000e+00
1
Step 628000
Ar -9.539283e-01 0.000000e+00 0.000000e+00
1
Step 629000
Ar -9.805702e-01 0.000000e+00 0.000000e+00
1
Step 630000
Ar -1.076922e+00 0.000000e+00 0.000000e+00
1
Step 631000
Ar -1.136533e+00 0.000000e+00 0.000000e+00
1
Step 632000
Ar -1.139067e+00 0.000000e+00 0.000000e+00
1
Step 633000
Ar -1.176457e+00 0.000000e+00 0.000000e+00
1
Step 634000
Ar -1.157308e+00 0.000000e+00 0.000000e+00
1
Step 635000
Ar -1.073742e+00 0.000000e+00 0.000000e+00
1
Step 636000
Ar -1.061855e+00 0.000000e+00 0.000000e+00
1
Step 637000
Ar -9.734945e-01 0.000000e+00 0.000000e+00
1
Step 638000
Ar -1.140626e+00 0.000000e+00 0.000000e+00
1
Step 639000
Ar -1.139329e+00 0.000000e+00 0.000000e+00
1
Step 640000
Ar -1.138649e+00 0.000000e+00 0.000000e+00
1
Step 641000
Ar -1.142884e+00 0.000000e+00 0.000000e+00
1
Step 642000
Ar -1.146576e+00 0.000000e+00 0.000000e+00
1
Step 643000
Ar -1.013776e+00 0.000000e+00 0.000000e+00
1
Step 644000
Ar -1.082575e+00 0.000000e+00 0.000000e+00
1
Step 645000
Ar -9.225658e-01 0.000000e+00 0.000000e+00
1
Step 646000
Ar -8.762475e-01 0.000000e+00 0.000000e+00
1
Step 647000
Ar -9.815519e-01 0.000000e+00 0.000000e+00
1
Step 648000
Ar -1.154168e+00 0.000000e+00 0.000000e+00
1
Step 649000
Ar -9.247695e-01 0.000000e+00 0.000000e+00
1
Step 650000
Ar -1.085914e+00 0.000000e+00 0.000000e+00
1
Step 651000