1
Step 120000
Ar 1.002240e+00 0.000000e+00 0.000000e+00
1
Step 121000
Ar 9.903198e-01 0.000000e+00 0.000000e+00
1
Step 122000
Ar 9.951926e-01 0.000000e+00 0.000000e+00
1
Step 123000
Ar 1.007763e+00 0.000000e+00 0.000000e+00
1
Step 124000
Ar 1.012035e+00 0.000000e+00 0.000000e+00
1
Step 125000
Ar 1.001941e+00 0.000000e+00 0.000000e+00
1
Step 126000
Ar 9.893154e-01 0.000000e+00 0.000000e+00
1
Step 127000
Ar 9.903335e-01 0.000000e+00 0.000000e+00
1
Step 128000
Ar 9.923838e-01 0.000000e+00 0.000000e+00
1
Step 129000
Ar 9.866940e-01 0.000000e+00 0.000000e+00
1
Step 130000
Ar 9.932105e-01 0.000000e+00 0.000000e+00
1
Step 131000
Ar 9.791292e-01 0.000000e+00 0.000000e+00
1
Step 132000
Ar 9.768151e-01 0.000000e+00 0.000000e+00
1
Step 133000
Ar 9.790058e-01 0.000000e+00 0.000000e+00
1
Step 134000
Ar 9.738479e-01 0.000000e+00 0.000000e+00
1
Step 135000
Ar 9.705169e-01 0.000000e+00 0.000000e+00
1
Step 136000
Ar 9.817132e-01 0.000000e+00 0.000000e+00
1
Step 137000
Ar 9.822123e-01 0.000000e+00 0.000000e+00
1
Step 138000
Ar 9.803933e-01 0.000000e+00 0.000000e+00
1
Step 139000
Ar 9.838401e-01 0.000000e+00 0.000000e+00
1
Step 140000
Ar 9.787462e-01 0.000000e+00 0.000000e+00
1
Step 141000
Ar 9.547784e-01 0.000000e+00 0.000000e+00
1
Step 142000
Ar 9.533563e-01 0.000000e+00 0.000000e+00
1
Step 143000
Ar 9.592941e-01 0.000000e+00 0.000000e+00
1
Step 144000
Ar 9.604023e-01 0.000000e+00 0.000000e+00
1
Step 145000
Ar 9.551663e-01 0.000000e+00 0.000000e+00
1
Step 146000
Ar 1.021125e+00 0.000000e+00 0.000000e+00
1
Step 147000
Ar 1.017336e+00 0.000000e+00 0.000000e+00
1
Step 148000
Ar 1.018252e+00 0.000000e+00 0.000000e+00
1
Step 149000
Ar 1.024677e+00 0.000000e+00 0.000000e+00
1
Step 150000
Ar 1.030877e+00 0.000000e+00 0.000000e+00
1
Step 151000
Ar 1.043917e+00 0.000000e+00 0.000000e+00
1
Step 152000
Ar 1.038034e+00 0.000000e+00 0.000000e+00
1
Step 153000
Ar 1.044452e+00 0.000000e+00 0.000000e+00
1
Step 154000
Ar 1.043799e+00 0.000000e+00 0.000000e+00
1
Step 155000
Ar 1.049477e+00 0.000000e+00 0.000000e+00
1
Step 156000
Ar 1.038348e+00 0.000000e+00 0.000000e+00
1
Step 157000
Ar 9.612622e-01 0.000000e+00 0.000000e+00
1
Step 158000
Ar 1.013104e+00 0.000000e+00 0.000000e+00
1
Step 159000
Ar 1.015449e+00 0.000000e+00 0.000000e+00
1
Step 160000
Ar 1.016142e+00 0.000000e+00 0.000000e+00
1
Step 161000
Ar 9.445275e-01 0.000000e+00 0.000000e+00
1
Step 162000
Ar 9.404938e-01 0.000000e+00 0.000000e+00
1
Step 163000
Ar 9.452556e-01 0.000000e+00 0.000000e+00
1
Step 164000
Ar 9.434128e-01 0.000000e+00 0.000000e+00
1
Step 165000
Ar 9.422612e-01 0.000000e+00 0.000000e+00
1
Step 166000
Ar 1.022252e+00 0.000000e+00 0.000000e+00
1
Step 167000
Ar 1.037083e+00 0.000000e+00 0.000000e+00
1
Step 168000
Ar 9.625117e-01 0.000000e+00 0.000000e+00
1
Step 169000
Ar 1.009389e+00 0.000000e+00 0.000000e+00
1
Step 170000
Ar 9.300987e-01 0.000000e+00 0.000000e+00
1
Step 171000
Ar 9.217265e-01 0.000000e+00 0.000000e+00
1
Step 172000
Ar 9.128554e-01 0.000000e+00 0.000000e+00
1
Step 173000
Ar 9.156152e-01 0.000000e+00 0.000000e+00
1
Step 174000
Ar 9.170331e-01 0.000000e+00 0.000000e+00
1
Step 175000
Ar 9.160830e-01 0.000000e+00 0.000000e+00
1
Step 176000
Ar 1.040772e+00 0.000000e+00 0.000000e+00
1
Step 177000
Ar 1.018089e+00 0.000000e+00 0.000000e+00
1
Step 178000
Ar 1.010939e+00 0.000000e+00 0.000000e+00
1
Step 179000
Ar 1.057077e+00 0.000000e+00 0.000000e+00
1
Step 180000
Ar 1.068252e+00 0.000000e+00 0.000000e+00
1
Step 181000
Ar 1.020019e+00 0.000000e+00 0.000000e+00
1
Step 182000
Ar 1.010141e+00 0.000000e+00 0.000000e+00
1
Step 183000
Ar 1.010454e+00 0.000000e+00 0.000000e+00
1
Step 184000
Ar 1.015380e+00 0.000000e+00 0.000000e+00
1
Step 185000
Ar 1.038432e+00 0.000000e+00 0.000000e+00
1
Step 186000
Ar 1.006703e+00 0.000000e+00 0.000000e+00
1
Step 187000
Ar 9.577789e-01 0.000000e+00 0.000000e+00
1
Step 188000
Ar 9.619490e-01 0.000000e+00 0.000000e+00
1
Step 189000
Ar 1.026108e+00 0.000000e+00 0.000000e+00
1
Step 190000
Ar 1.025297e+00 0.000000e+00 0.000000e+00
1
Step 191000
Ar 1.010100e+00 0.000000e+00 0.000000e+00
1
Step 192000
Ar 9.639720e-01 0.000000e+00 0.000000e+00
1
Step 193000
Ar 1.007091e+00 0.000000e+00 0.000000e+00
1
Step 194000
Ar 1.009579e+00 0.000000e+00 0.000000e+00
1
Step 195000
Ar 9.642616e-01 0.000000e+00 0.000000e+00
1
Step 196000
Ar 1.008529e+00 0.000000e+00 0.000000e+00
1
Step 197000
Ar 9.896984e-01 0.000000e+00 0.000000e+00
1
Step 198000
Ar 9.869606e-01 0.000000e+00 0.000000e+00
1
Step 199000
Ar 9.881977e-01 0.000000e+00 0.000000e+00
1
Step 200000
Ar 9.899551e-01 0.000000e+00 0.000000e+00
1
Step 201000
Ar 9.843121e-01 0.000000e+00 0.000000e+00
1
Step 202000
Ar 1.061344e+00 0.000000e+00 0.000000e+00
1
Step 203000
Ar 9.515223e-01 0.000000e+00 0.000000e+00
1
Step 204000
Ar 1.006056e+00 0.000000e+00 0.000000e+00
1
Step 205000
Ar 1.010643e+00 0.000000e+00 0.000000e+00
1
Step 206000
Ar 1.006312e+00 0.000000e+00 0.000000e+00
1
Step 207000
Ar 1.002353e+00 0.000000e+00 0.000000e+00
1
Step 208000
Ar 1.006252e+00 0.000000e+00 0.000000e+00
1
Step 209000
Ar 1.020137e+00 0.000000e+00 0.000000e+00
1
Step 210000
Ar 1.007261e+00 0.000000e+00 0.000000e+00
1
Step 211000
Ar 9.520671e-01 0.000000e+00 0.000000e+00
1
Step 212000
Ar 9.512931e-01 0.000000e+00 0.000000e+00
1
Step 213000
Ar 9.278223e-01 0.000000e+00 0.000000e+00
1
Step 214000
Ar 1.063787e+00 0.000000e+00 0.000000e+00
1
Step 215000
Ar 9.662497e-01 0.000000e+00 0.000000e+00
1
Step 216000
Ar 1.037695e+00 0.000000e+00 0.000000e+00
1
Step 217000
Ar 1.020064e+00 0.000000e+00 0.000000e+00
1
Step 218000
Ar 1.022864e+00 0.000000e+00 0.000000e+00
1
Step 219000
Ar 1.057263e+00 0.000000e+00 0.000000e+00
1
Step 220000
Ar 1.047086e+00 0.000000e+00 0.000000e+00
1
Step 221000
Ar 1.016709e+00 0.000000e+00 0.000000e+00
1
Step 222000
Ar 1.018007e+00 0.000000e+00 0.000000e+00
1
Step 223000
Ar 1.023655e+00 0.000000e+00 0.000000e+00
1
Step 224000
Ar 9.858628e-01 0.000000e+00 0.000000e+00
1
Step 225000
Ar 9.803439e-01 0.000000e+00 0.000000e+00
1
Step 226000
Ar 1.034648e+00 0.000000e+00 0.000000e+00
1
Step 227000
Ar 1.020902e+00 0.000000e+00 0.000000e+00
1
Step 228000
Ar 9.964843e-01 0.000000e+00 0.000000e+00
1
Step 229000
Ar 9.877980e-01 0.000000e+00 0.000000e+00
1
Step 230000
Ar 1.000104e+00 0.000000e+00 0.000000e+00
1
Step 231000
Ar 9.080481e-01 0.000000e+00 0.000000e+00
1
Step 232000
Ar 1.021867e+00 0.000000e+00 0.000000e+00
1
Step 233000
Ar 1.021239e+00 0.000000e+00 0.000000e+00
1
Step 234000
Ar 1.019947e+00 0.000000e+00 0.000000e+00
1
Step 235000
Ar 1.022031e+00 0.000000e+00 0.000000e+00
1
Step 236000
Ar 9.085935e-01 0.000000e+00 0.000000e+00
1
Step 237000
Ar 1.023759e+00 0.000000e+00 0.000000e+00
1
Step 238000
Ar 1.035800e+00 0.000000e+00 0.000000e+00
1
Step 239000
Ar 1.037162e+00 0.000000e+00 0.000000e+00
1
Step 240000
Ar 1.032830e+00 0.000000e+00 0.000000e+00
1
Step 241000
Ar 8.682937e-01 0.000000e+00 0.000000e+00
1
Step 242000
Ar 9.829125e-01 0.000000e+00 0.000000e+00
1
Step 243000
Ar 9.510921e-01 0.000000e+00 0.000000e+00
1
Step 244000
Ar 9.485868e-01 0.000000e+00 0.000000e+00
1
Step 245000
Ar 9.501321e-01 0.000000e+00 0.000000e+00
1
Step 246000
Ar 1.076077e+00 0.000000e+00 0.000000e+00
1
Step 247000
Ar 9.461262e-01 0.000000e+00 0.000000e+00
1
Step 248000
Ar 9.083126e-01 0.000000e+00 0.000000e+00
1
Step 249000
Ar 9.418119e-01 0.000000e+00 0.000000e+00
1
Step 250000
Ar 9.344535e-01 0.000000e+00 0.000000e+00
1
Step 251000
Ar 1.015088e+00 0.000000e+00 0.000000e+00
1
Step 252000
Ar 1.081067e+00 0.000000e+00 0.000000e+00
1
Step 253000
Ar 9.226756e-01 0.000000e+00 0.000000e+00
1
Step 254000
Ar 9.078621e-01 0.000000e+00 0.000000e+00
1
Step 255000
Ar 9.022237e-01 0.000000e+00 0.000000e+00
1
Step 256000
Ar 9.861722e-01 0.000000e+00 0.000000e+00
1
Step 257000
Ar 9.898316e-01 0.000000e+00 0.000000e+00
1
Step 258000
Ar 1.029974e+00 0.000000e+00 0.000000e+00
1
Step 259000
Ar 1.031306e+00 0.000000e+00 0.000000e+00
1
Step 260000
Ar 1.011650e+00 0.000000e+00 0.000000e+00
1
Step 261000
Ar 1.075876e+00 0.000000e+00 0.000000e+00
1
Step 262000
Ar 1.083320e+00 0.000000e+00 0.000000e+00
1
Step 263000
Ar 9.876801e-01 0.000000e+00 0.000000e+00
1
Step 264000
Ar 8.664939e-01 0.000000e+00 0.000000e+00
1
Step 265000
Ar 9.877420e-01 0.000000e+00 0.000000e+00
1
Step 266000
Ar 1.018622e+00 0.000000e+00 0.000000e+00
1
Step 267000
Ar 1.049276e+00 0.000000e+00 0.000000e+00
1
Step 268000
Ar 9.759068e-01 0.000000e+00 0.000000e+00
1
Step 269000
Ar 9.782436e-01 0.000000e+00 0.000000e+00
1
Step 270000
Ar 9.720111e-01 0.000000e+00 0.000000e+00
1
Step 271000
Ar 9.313407e-01 0.000000e+00 0.000000e+00
1
Step 272000
Ar 9.946788e-01 0.000000e+00 0.000000e+00
1
Step 273000
Ar 1.001190e+00 0.000000e+00 0.000000e+00
1
Step 274000
Ar 9.787812e-01 0.000000e+00 0.000000e+00
1
Step 275000
Ar 9.998525e-01 0.000000e+00 0.000000e+00
1
Step 276000
Ar 9.579179e-01 0.000000e+00 0.000000e+00
1
Step 277000
Ar 9.558027e-01 0.000000e+00 0.000000e+00
1
Step 278000
Ar 9.600129e-01 0.000000e+00 0.000000e+00
1
Step 279000
Ar 8.304012e-01 0.000000e+00 0.000000e+00
1
Step 280000
Ar 9.545828e-01 0.000000e+00 0.000000e+00
1
Step 281000
Ar 8.750861e-01 0.000000e+00 0.000000e+00
1
Step 282000
Ar 9.449411e-01 0.000000e+00 0.000000e+00
1
Step 283000
Ar 9.390603e-01 0.000000e+00 0.000000e+00
1
Step 284000
Ar 9.449723e-01 0.000000e+00 0.000000e+00
1
Step 285000
Ar 9.464413e-01 0.000000e+00 0.000000e+00
1
Step 286000
Ar 1.138416e+00 0.000000e+00 0.000000e+00
1
Step 287000
Ar 9.089256e-01 0.000000e+00 0.000000e+00
1
Step 288000
Ar 9.828762e-01 0.000000e+00 0.000000e+00
1
Step 289000
Ar 9.781879e-01 0.000000e+00 0.000000e+00
1
Step 290000
Ar 9.822564e-01 0.000000e+00 0.000000e+00
1
Step 291000
Ar 1.070617e+00 0.000000e+00 0.000000e+00
1
Step 292000
Ar 8.643002e-01 0.000000e+00 0.000000e+00
1
Step 293000
Ar 1.060065e+00 0.000000e+00 0.000000e+00
1
Step 294000
Ar 9.936631e-01 0.000000e+00 0.000000e+00
1
Step 295000
Ar 9.874506e-01 0.000000e+00 0.000000e+00
1
Step 296000
Ar 8.874162e-01 0.000000e+00 0.000000e+00
1
Step 297000
Ar 8.899496e-01 0.000000e+00 0.000000e+00
1
Step 298000
Ar 8.743916e-01 0.000000e+00 0.000000e+00
1
Step 299000
Ar 1.057046e+00 0.000000e+00 0.000000e+00
1
Step 300000
Ar 9.263048e-01 0.000000e+00 0.000000e+00
1
Step 301000
Ar 9.219002e-01 0.000000e+00 0.000000e+00
1
Step 302000
Ar 9.106677e-01 0.000000e+00 0.000000e+00
1
Step 303000
Ar 9.090839e-01 0.000000e+00 0.000000e+00
1
Step 304000
Ar 9.119268e-01 0.000000e+00 0.000000e+00
1
Step 305000
Ar 9.090921e-01 0.000000e+00 0.000000e+00
1
Step 306000
Ar 9.437836e-01 0.000000e+00 0.000000e+00
1
Step 307000
Ar 8.872227e-01 0.000000e+00 0.000000e+00
1
Step 308000
Ar 8.908664e-01 0.000000e+00 0.000000e+00
1
Step 309000
Ar 8.895127e-01 0.000000e+00 0.000000e+00
1
Step 310000
Ar 8.949166e-01 0.000000e+00 0.000000e+00
1
Step 311000
Ar 8.869742e-01 0.000000e+00 0.000000e+00
1
Step 312000
Ar 8.851653e-01 0.000000e+00 0.000000e+00
1
Step 313000
Ar 8.838937e-01 0.000000e+00 0.000000e+00
1
Step 314000
Ar 8.853673e-01 0.000000e+00 0.000000e+00
1
Step 315000
Ar 8.599941e-01 0.000000e+00 0.000000e+00
1
Step 316000
Ar 9.385772e-01 0.000000e+00 0.000000e+00
1
Step 317000
Ar 7.662942e-01 0.000000e+00 0.000000e+00
1
Step 318000
Ar 8.248710e-01 0.000000e+00 0.000000e+00
1
Step 319000
Ar 9.725528e-01 0.000000e+00 0.000000e+00
1
Step 320000
Ar 8.795277e-01 0.000000e+00 0.000000e+00
1
Step 321000
Ar 9.198283e-01 0.000000e+00 0.000000e+00
1
Step 322000
Ar 8.519756e-01 0.000000e+00 0.000000e+00
1
Step 323000
Ar 9.617038e-01 0.000000e+00 0.000000e+00
1
Step 324000
Ar 1.055371e+00 0.000000e+00 0.000000e+00
1
Step 325000
Ar 1.180177e+00 0.000000e+00 0.000000e+00
1
Step 326000
Ar 1.078879e+00 0.000000e+00 0.000000e+00
1
Step 327000
Ar 9.533260e-01 0.000000e+00 0.000000e+00
1
Step 328000
Ar 1.024036e+00 0.000000e+00 0.000000e+00
1
Step 329000
Ar 1.086208e+00 0.000000e+00 0.000000e+00
1
Step 330000
Ar 1.066697e+00 0.000000e+00 0.000000e+00
1
Step 331000
Ar 1.151861e+00 0.000000e+00 0.000000e+00
1
Step 332000
Ar 1.082175e+00 0.000000e+00 0.000000e+00
1
Step 333000
Ar 1.164088e+00 0.000000e+00 0.000000e+00
1
Step 334000
Ar 1.077648e+00 0.000000e+00 0.000000e+00
1
Step 335000
Ar 1.078229e+00 0.000000e+00 0.000000e+00
1
Step 336000
Ar 1.084549e+00 0.000000e+00 0.000000e+00
1
Step 337000
Ar 1.084845e+00 0.000000e+00 0.000000e+00
1
Step 338000
Ar 1.084738e+00 0.000000e+00 0.000000e+00
1
Step 339000
Ar 1.089000e+00 0.000000e+00 0.000000e+00
1
Step 340000
Ar 1.088172e+00 0.000000e+00 0.000000e+00
1
Step 341000
Ar 8.378336e-01 0.000000e+00 0.000000e+00
1
Step 342000
Ar 9.191756e-01 0.000000e+00 0.000000e+00
1
Step 343000
Ar 1.049011e+00 0.000000e+00 0.000000e+00
1
Step 344000
Ar 1.092251e+00 0.000000e+00 0.000000e+00
1
Step 345000
Ar 9.170244e-01 0.000000e+00 0.000000e+00
1
Step 346000
Ar 9.352615e-01 0.000000e+00 0.000000e+00
1
Step 347000
Ar 1.075454e+00 0.000000e+00 0.000000e+00
1
Step 348000
Ar 1.049667e+00 0.000000e+00 0.000000e+00
1
Step 349000
Ar 9.088261e-01 0.000000e+00 0.000000e+00
1
Step 350000
Ar 9.820114e-01 0.000000e+00 0.000000e+00
1
Step 351000
Ar 1.046457e+00 0.000000e+00 0.000000e+00
1
Step 352000
Ar 9.562091e-01 0.000000e+00 0.000000e+00
1
Step 353000
Ar 1.112135e+00 0.000000e+00 0.000000e+00
1
Step 354000
Ar 1.101390e+00 0.000000e+00 0.000000e+00
1
Step 355000
Ar 8.564993e-01 0.000000e+00 0.000000e+00
1
Step 356000
Ar 8.468436e-01 0.000000e+00 0.000000e+00
1
Step 357000
Ar 8.427508e-01 0.000000e+00 0.000000e+00
1
Step 358000
Ar 8.454728e-01 0.000000e+00 0.000000e+00
1
Step 359000
Ar 8.461124e-01 0.000000e+00 0.000000e+00
1
Step 360000
Ar 8.466444e-01 0.000000e+00 0.000000e+00
1
Step 361000
Ar 8.899847e-01 0.000000e+00 0.000000e+00
1
Step 362000
Ar 1.162644e+00 0.000000e+00 0.000000e+00
1
Step 363000
Ar 9.477956e-01 0.000000e+00 0.000000e+00
1
Step 364000
Ar 1.052555e+00 0.000000e+00 0.000000e+00
1
Step 365000
Ar 1.095958e+00 0.000000e+00 0.000000e+00
1
Step 366000
Ar 1.032312e+00 0.000000e+00 0.000000e+00
1
Step 367000
Ar 1.020502e+00 0.000000e+00 0.000000e+00
1
Step 368000
Ar 8.257216e-01 0.000000e+00 0.000000e+00
1
Step 369000
Ar 9.284599e-01 0.000000e+00 0.000000e+00
1
Step 370000
Ar 1.009100e+00 0.000000e+00 0.000000e+00
1
Step 371000
Ar 1.134744e+00 0.000000e+00 0.000000e+00
1
Step 372000
Ar 1.050996e+00 0.000000e+00 0.000000e+00
1
Step 373000
Ar 1.043015e+00 0.000000e+00 0.000000e+00
1
Step 374000
Ar 1.110754e+00 0.000000e+00 0.000000e+00
1
Step 375000
Ar 9.253425e-01 0.000000e+00 0.000000e+00
1
Step 376000
Ar 9.071342e-01 0.000000e+00 0.000000e+00
1
Step 377000
Ar 9.580383e-01 0.000000e+00 0.000000e+00
1
Step 378000
Ar 8.779622e-01 0.000000e+00 0.000000e+00
1
Step 379000
Ar 8.949378e-01 0.000000e+00 0.000000e+00
1
Step 380000
Ar 1.023625e+00 0.000000e+00 0.000000e+00
1
Step 381000
Ar 1.049624e+00 0.000000e+00 0.000000e+00
1
Step 382000
Ar 1.181283e+00 0.000000e+00 0.000000e+00
1
Step 383000
Ar 9.035749e-01 0.000000e+00 0.000000e+00
1
Step 384000
Ar 8.112715e-01 0.000000e+00 0.000000e+00
1
Step 385000
Ar 1.130410e+00 0.000000e+00 0.000000e+00
1
Step 386000
Ar 9.028283e-01 0.000000e+00 0.000000e+00
1
Step 387000
Ar 9.089537e-01 0.000000e+00 0.000000e+00
1
Step 388000
Ar 8.846491e-01 0.000000e+00 0.000000e+00
1
Step 389000
Ar 8.697777e-01 0.000000e+00 0.000000e+00
1
Step 390000
Ar 1.016634e+00 0.000000e+00 0.000000e+00
1
Step 391000
Ar 9.063224e-01 0.000000e+00 0.000000e+00
1
Step 392000
Ar 1.034952e+00 0.000000e+00 0.000000e+00
1
Step 393000
Ar 8.441639e-01 0.000000e+00 0.000000e+00
1
Step 394000
Ar 1.078146e+00 0.000000e+00 0.000000e+00
1
Step 395000
Ar 1.074735e+00 0.000000e+00 0.000000e+00
1
Step 396000
Ar 9.092015e-01 0.000000e+00 0.000000e+00
1
Step 397000
Ar 1.031619e+00 0.000000e+00 0.000000e+00
1
Step 398000
Ar 7.333412e-01 0.000000e+00 0.000000e+00
1
Step 399000
Ar 9.588119e-01 0.000000e+00 0.000000e+00
1
Step 400000
Ar 1.069639e+00 0.000000e+00 0.000000e+00
1
Step 401000
Ar 1.202629e+00 0.000000e+00 0.000000e+00
1
Step 402000
Ar 8.914846e-01 0.000000e+00 0.000000e+00
1
Step 403000
Ar 9.079008e-01 0.000000e+00 0.000000e+00
1
Step 404000
Ar 1.019396e+00 0.000000e+00 0.000000e+00
1
Step 405000
Ar 8.872593e-01 0.000000e+00 0.000000e+00
1
Step 406000
Ar 1.101100e+00 0.000000e+00 0.000000e+00
1
Step 407000
Ar 1.107537e+00 0.000000e+00 0.000000e+00
1
Step 408000
Ar 1.103449e+00 0.000000e+00 0.000000e+00
1
Step 409000
Ar 1.105732e+00 0.000000e+00 0.000000e+00
1
Step 410000
Ar 1.103925e+00 0.000000e+00 0.000000e+00
1
Step 411000
Ar 1.075380e+00 0.000000e+00 0.000000e+00
1
Step 412000
Ar 1.086453e+00 0.000000e+00 0.000000e+00
1
Step 413000
Ar 1.002200e+00 0.000000e+00 0.000000e+00
1
Step 414000
Ar 9.410510e-01 0.000000e+00 0.000000e+00
1
Step 415000
Ar 8.945145e-01 0.000000e+00 0.000000e+00
1
Step 416000
Ar 1.092418e+00 0.000000e+00 0.000000e+00
1
Step 417000
Ar 1.087271e+00 0.000000e+00 0.000000e+00
1
Step 418000
Ar 8.836829e-01 0.000000e+00 0.000000e+00
1
Step 419000
Ar 8.704707e-01 0.000000e+00 0.000000e+00
1
Step 420000
Ar 8.731249e-01 0.000000e+00 0.000000e+00
1
Step 421000
Ar 7.860823e-01 0.000000e+00 0.000000e+00
1
Step 422000
Ar 9.407220e-01 0.000000e+00 0.000000e+00
1
Step 423000
Ar 7.718123e-01 0.000000e+00 0.000000e+00
1
Step 424000
Ar 1.064290e+00 0.000000e+00 0.000000e+00
1
Step 425000
Ar 9.063793e-01 0.000000e+00 0.000000e+00
1
Step 426000
Ar 9.829511e-01 0.000000e+00 0.000000e+00
1
Step 427000
Ar 7.312634e-01 0.000000e+00 0.000000e+00
1
Step 428000
Ar 9.965908e-01 0.000000e+00 0.000000e+00
1
Step 429000
Ar 9.638869e-01 0.000000e+00 0.000000e+00
1
Step 430000
Ar 8.871701e-01 0.000000e+00 0.000000e+00
1
Step 431000
Ar 9.935029e-01 0.000000e+00 0.000000e+00
1
Step 432000
Ar 9.595031e-01 0.000000e+00 0.000000e+00
1
Step 433000
Ar 7.049959e-01 0.000000e+00 0.000000e+00
1
Step 434000
Ar 1.139697e+00 0.000000e+00 0.000000e+00
1
Step 435000
Ar 8.433436e-01 0.000000e+00 0.000000e+00
1
Step 436000
Ar 7.148804e-01 0.000000e+00 0.000000e+00
1
Step 437000
Ar 8.366370e-01 0.000000e+00 0.000000e+00
1
Step 438000
Ar 8.350141e-01 0.000000e+00 0.000000e+00
1
Step 439000
Ar 8.348537e-01 0.000000e+00 0.000000e+00
1
Step 440000
Ar 8.372077e-01 0.000000e+00 0.000000e+00
1
Step 441000
Ar 8.291330e-01 0.000000e+00 0.000000e+00
1
Step 442000
Ar 8.289689e-01 0.000000e+00 0.000000e+00
1
Step 443000
Ar 8.296523e-01 0.000000e+00 0.000000e+00
1
Step 444000
Ar 8.277621e-01 0.000000e+00 0.000000e+00
1
Step 445000
Ar 8.292748e-01 0.000000e+00 0.000000e+00
1
Step 446000
Ar 7.701706e-01 0.000000e+00 0.000000e+00
1
Step 447000
Ar 9.396805e-01 0.000000e+00 0.000000e+00
1
Step 448000
Ar 9.370885e-01 0.000000e+00 0.000000e+00
1
Step 449000
Ar 8.763910e-01 0.000000e+00 0.000000e+00
1
Step 450000
Ar 8.985450e-01 0.000000e+00 0.000000e+00
1
Step 451000
Ar 1.160306e+00 0.000000e+00 0.000000e+00
1
Step 452000
Ar 1.047135e+00 0.000000e+00 0.000000e+00
1
Step 453000
Ar 8.676607e-01 0.000000e+00 0.000000e+00
1
Step 454000
Ar 8.688630e-01 0.000000e+00 0.000000e+00
1
Step 455000
Ar 9.629017e-01 0.000000e+00 0.000000e+00
1
Step 456000
Ar 1.241587e+00 0.000000e+00 0.000000e+00
1
Step 457000
Ar 1.113115e+00 0.000000e+00 0.000000e+00
1
Step 458000
Ar 9.279492e-01 0.000000e+00 0.000000e+00
1
Step 459000
Ar 1.083491e+00 0.000000e+00 0.000000e+00
1
Step 460000
Ar 1.084601e+00 0.000000e+00 0.000000e+00
1
Step 461000
Ar 1.090889e+00 0.000000e+00 0.000000e+00
1
Step 462000
Ar 1.097578e+00 0.000000e+00 0.000000e+00
1
Step 463000
Ar 1.092766e+00 0.000000e+00 0.000000e+00
1
Step 464000
Ar 1.088876e+00 0.000000e+00 0.000000e+00
1
Step 465000
Ar 1.092944e+00 0.000000e+00 0.000000e+00
1
Step 466000
Ar 1.113185e+00 0.000000e+00 0.000000e+00
1
Step 467000
Ar 1.113771e+00 0.000000e+00 0.000000e+00
1
Step 468000
Ar 1.111335e+00 0.000000e+00 0.000000e+00
1
Step 469000
Ar 1.108191e+00 0.000000e+00 0.000000e+00
1
Step 470000
Ar 1.109922e+00 0.000000e+00 0.000000e+00
1
Step 471000
Ar 9.315819e-01 0.000000e+00 0.000000e+00
1
Step 472000
Ar 7.814358e-01 0.000000e+00 0.000000e+00
1
Step 473000
Ar 8.360144e-01 0.000000e+00 0.000000e+00
1
Step 474000
Ar 9.129657e-01 0.000000e+00 0.000000e+00
1
Step 475000
Ar 8.662535e-01 0.000000e+00 0.000000e+00
1
Step 476000
Ar 8.793948e-01 0.000000e+00 0.000000e+00
1
Step 477000
Ar 8.806768e-01 0.000000e+00 0.000000e+00
1
Step 478000
Ar 8.774275e-01 0.000000e+00 0.000000e+00
1
Step 479000
Ar 8.771723e-01 0.000000e+00 0.000000e+00
1
Step 480000
Ar 8.738512e-01 0.000000e+00 0.000000e+00
1
Step 481000
Ar 1.019828e+00 0.000000e+00 0.000000e+00
1
Step 482000
Ar 1.049517e+00 0.000000e+00 0.000000e+00
1
Step 483000
Ar 8.151862e-01 0.000000e+00 0.000000e+00
1
Step 484000
Ar 1.129636e+00 0.000000e+00 0.000000e+00
1
Step 485000
Ar 9.367532e-01 0.000000e+00 0.000000e+00
1
Step 486000
Ar 9.479524e-01 0.000000e+00 0.000000e+00
1
Step 487000
Ar 1.056865e+00 0.000000e+00 0.000000e+00
1
Step 488000
Ar 9.481947e-01 0.000000e+00 0.000000e+00
1
Step 489000
Ar 9.558595e-01 0.000000e+00 0.000000e+00
1
Step 490000
Ar 1.016240e+00 0.000000e+00 0.000000e+00
1
Step 491000
Ar 1.165385e+00 0.000000e+00 0.000000e+00
1
Step 492000
Ar 9.428363e-01 0.000000e+00 0.000000e+00
1
Step 493000
Ar 9.595343e-01 0.000000e+00 0.000000e+00
1
Step 494000
Ar 9.446057e-01 0.000000e+00 0.000000e+00
1
Step 495000
Ar 9.549190e-01 0.000000e+00 0.000000e+00
1
Step 496000
Ar 1.061707e+00 0.000000e+00 0.000000e+00
1
Step 497000
Ar 9.479433e-01 0.000000e+00 0.000000e+00
1
Step 498000
Ar 9.021897e-01 0.000000e+00 0.000000e+00
1
Step 499000
Ar 9.646386e-01 0.000000e+00 0.000000e+00
1
Step 500000
Ar 9.416496e-01 0.000000e+00 0.000000e+00
1
Step 501000
Ar 9.940294e-01 0.000000e+00 0.000000e+00
1
Step 502000
Ar 7.649766e-01 0.000000e+00 0.000000e+00
1
Step 503000
Ar 9.269581e-01 0.000000e+00 0.000000e+00
1
Step 504000
Ar 1.046128e+00 0.000000e+00 0.000000e+00
1
Step 505000
Ar 9.494038e-01 0.000000e+00 0.000000e+00
1
Step 506000
Ar 8.941100e-01 0.000000e+00 0.000000e+00
1
Step 507000
Ar 9.404391e-01 0.000000e+00 0.000000e+00
1
Step 508000
Ar 9.421299e-01 0.000000e+00 0.000000e+00
1
Step 509000
Ar 1.043900e+00 0.000000e+00 0.000000e+00
1
Step 510000
Ar 1.019589e+00 0.000000e+00 0.000000e+00
1
Step 511000
Ar 9.216764e-01 0.000000e+00 0.000000e+00
1
Step 512000
Ar 9.177380e-01 0.000000e+00 0.000000e+00
1
Step 513000
Ar 9.196992e-01 0.000000e+00 0.000000e+00
1
Step 514000
Ar 9.184392e-01 0.000000e+00 0.000000e+00
1
Step 515000
Ar 9.206943e-01 0.000000e+00 0.000000e+00
1
Step 516000
Ar 9.335638e-01 0.000000e+00 0.000000e+00
1
Step 517000
Ar 9.347072e-01 0.000000e+00 0.000000e+00
1
Step 518000
Ar 9.396656e-01 0.000000e+00 0.000000e+00
1
Step 519000
Ar 9.300800e-01 0.000000e+00 0.000000e+00
1
Step 520000
Ar 9.386056e-01 0.000000e+00 0.000000e+00
1
Step 521000
Ar 9.372074e-01 0.000000e+00 0.000000e+00
1
Step 522000
Ar 9.960079e-01 0.000000e+00 0.000000e+00
1
Step 523000
Ar 9.104006e-01 0.000000e+00 0.000000e+00
1
Step 524000
Ar 9.115636e-01 0.000000e+00 0.000000e+00
1
Step 525000
Ar 9.096197e-01 0.000000e+00 0.000000e+00
1
Step 526000
Ar 1.091812e+00 0.000000e+00 0.000000e+00
1
Step 527000
Ar 1.065125e+00 0.000000e+00 0.000000e+00
1
Step 528000
Ar 8.342947e-01 0.000000e+00 0.000000e+00
1
Step 529000
Ar 9.276538e-01 0.000000e+00 0.000000e+00
1
Step 530000
Ar 9.283038e-01 0.000000e+00 0.000000e+00
1
Step 531000
Ar 9.918500e-01 0.000000e+00 0.000000e+00
1
Step 532000
Ar 9.719772e-01 0.000000e+00 0.000000e+00
1
Step 533000
Ar 9.088306e-01 0.000000e+00 0.000000e+00
1
Step 534000
Ar 8.648977e-01 0.000000e+00 0.000000e+00
1
Step 535000
Ar 9.739337e-01 0.000000e+00 0.000000e+00
1
Step 536000
Ar 8.851208e-01 0.000000e+00 0.000000e+00
1
Step 537000
Ar 9.453668e-01 0.000000e+00 0.000000e+00
1
Step 538000
Ar 9.517807e-01 0.000000e+00 0.000000e+00
1
Step 539000
Ar 7.419573e-01 0.000000e+00 0.000000e+00
1
Step 540000
Ar 5.494028e-01 0.000000e+00 0.000000e+00
1
Step 541000
Ar 8.037232e-01 0.000000e+00 0.000000e+00
1
Step 542000
Ar 9.269240e-01 0.000000e+00 0.000000e+00
1
Step 543000
Ar 7.213775e-01 0.000000e+00 0.000000e+00
1
Step 544000
Ar 7.823449e-01 0.000000e+00 0.000000e+00
1
Step 545000
Ar 9.951012e-01 0.000000e+00 0.000000e+00
1
Step 546000
Ar 1.118694e+00 0.000000e+00 0.000000e+00
1
Step 547000
Ar 1.047075e+00 0.000000e+00 0.000000e+00
1
Step 548000
Ar 6.731136e-01 0.000000e+00 0.000000e+00
1
Step 549000
Ar 9.822045e-01 0.000000e+00 0.000000e+00
1
Step 550000
Ar 1.160046e+00 0.000000e+00 0.000000e+00
1
Step 551000
Ar 9.958616e-01 0.000000e+00 0.000000e+00
1
Step 552000
Ar 9.975835e-01 0.000000e+00 0.000000e+00
1
Step 553000
Ar 1.000387e+00 0.000000e+00 0.000000e+00
1
Step 554000
Ar 6.822752e-01 0.000000e+00 0.000000e+00
1
Step 555000
Ar 1.147917e+00 0.000000e+00 0.000000e+00
1
Step 556000
Ar 1.078271e+00 0.000000e+00 0.000000e+00
1
Step 557000
Ar 8.306158e-01 0.000000e+00 0.000000e+00
1
Step 558000
Ar 7.836052e-01 0.000000e+00 0.000000e+00
1
Step 559000
Ar 1.079911e+00 0.000000e+00 0.000000e+00
1
Step 560000
Ar 1.082286e+00 0.000000e+00 0.000000e+00
1
Step 561000
Ar 1.003837e+00 0.000000e+00 0.000000e+00
1
Step 562000
Ar 9.948361e-01 0.000000e+00 0.000000e+00
1
Step 563000
Ar 9.985251e-01 0.000000e+00 0.000000e+00
1
Step 564000
Ar 1.000057e+00 0.000000e+00 0.000000e+00
1
Step 565000
Ar 1.002212e+00 0.000000e+00 0.000000e+00
1
Step 566000
Ar 1.000650e+00 0.000000e+00 0.000000e+00
1
Step 567000
Ar 7.886163e-01 0.000000e+00 0.000000e+00
1
Step 568000
Ar 1.010728e+00 0.000000e+00 0.000000e+00
1
Step 569000
Ar 9.167527e-01 0.000000e+00 0.000000e+00
1
Step 570000
Ar 9.141788e-01 0.000000e+00 0.000000e+00
1
Step 571000
Ar 9.973589e-01 0.000000e+00 0.000000e+00
1
Step 572000
Ar 1.036624e+00 0.000000e+00 0.000000e+00
1
Step 573000
Ar 9.623625e-01 0.000000e+00 0.000000e+00
1
Step 574000
Ar 8.813636e-01 0.000000e+00 0.000000e+00
1
Step 575000
Ar 9.555960e-01 0.000000e+00 0.000000e+00
1
Step 576000
Ar 7.309675e-01 0.000000e+00 0.000000e+00
1
Step 577000
Ar 6.973589e-01 0.000000e+00 0.000000e+00
1
Step 578000
Ar 9.933754e-01 0.000000e+00 0.000000e+00
1
Step 579000
Ar 9.926547e-01 0.000000e+00 0.000000e+00
1
Step 580000
Ar 9.913478e-01 0.000000e+00 0.000000e+00
1
Step 581000
Ar 9.967978e-01 0.000000e+00 0.000000e+00
1
Step 582000
Ar 1.053916e+00 0.000000e+00 0.000000e+00
1
Step 583000
Ar 9.994554e-01 0.000000e+00 0.000000e+00
1
Step 584000
Ar 1.005186e+00 0.000000e+00 0.000000e+00
1
Step 585000
Ar 9.676993e-01 0.000000e+00 0.000000e+00
1
Step 586000
Ar 1.101509e+00 0.000000e+00 0.000000e+00
1
Step 587000
Ar 1.101977e+00 0.000000e+00 0.000000e+00
1
Step 588000
Ar 9.027382e-01 0.000000e+00 0.000000e+00
1
Step 589000
Ar 9.053030e-01 0.000000e+00 0.000000e+00
1
Step 590000
Ar 1.119189e+00 0.000000e+00 0.000000e+00
1
Step 591000
Ar 9.742117e-01 0.000000e+00 0.000000e+00
1
Step 592000
Ar 8.369758e-01 0.000000e+00 0.000000e+00
1
Step 593000
Ar 1.164381e+00 0.000000e+00 0.000000e+00
1
Step 594000
Ar 1.043675e+00 0.000000e+00 0.000000e+00
1
Step 595000
Ar 9.935481e-01 0.000000e+00 0.000000e+00
1
Step 596000
Ar 1.102238e+00 0.000000e+00 0.000000e+00
1
Step 597000
Ar 9.579445e-01 0.000000e+00 0.000000e+00
1
Step 598000
Ar 4.428742e-01 0.000000e+00 0.000000e+00
1
Step 599000
Ar 9.072535e-01 0.000000e+00 0.000000e+00
1
Step 600000
Ar 8.546612e-01 0.000000e+00 0.000000e+00
1
Step 601000
Ar 9.383785e-01 0.000000e+00 0.000000e+00
1
Step 602000
Ar 9.415234e-01 0.000000e+00 0.000000e+00
1
Step 603000
Ar 9.354176e-01 0.000000e+00 0.000000e+00
1
Step 604000
Ar 9.445809e-01 0.000000e+00 0.000000e+00
1
Step 605000
Ar 9.618570e-01 0.000000e+00 0.000000e+00
1
Step 606000
Ar 7.814640e-01 0.000000e+00 0.000000e+00
1
Step 607000
Ar 6.960210e-01 0.000000e+00 0.000000e+00
1
Step 608000
Ar 1.045442e+00 0.000000e+00 0.000000e+00
1
Step 609000
Ar 1.003174e+00 0.000000e+00 0.000000e+00
1
Step 610000
Ar 8.967112e-01 0.000000e+00 0.000000e+00
1
Step 611000
Ar 1.062560e+00 0.000000e+00 0.000000e+00
1
Step 612000
Ar 9.781587e-01 0.000000e+00 0.000000e+00
1
Step 613000
Ar 1.087806e+00 0.000000e+00 0.000000e+00
1
Step 614000
Ar 1.006809e+00 0.000000e+00 0.000000e+00
1
Step 615000
Ar 9.862285e-01 0.000000e+00 0.000000e+00
1
Step 616000
Ar 1.151581e+00 0.000000e+00 0.000000e+00
1
Step 617000
Ar 1.097962e+00 0.000000e+00 0.000000e+00
1
Step 618000
Ar 1.098943e+00 0.000000e+00 0.000000e+00
1
Step 619000
Ar 1.097735e+00 0.000000e+00 0.000000e+00
1
Step 620000
Ar 1.228630e+00 0.000000e+00 0.000000e+00
1
Step 621000
Ar 9.422849e-01 0.000000e+00 0.000000e+00
1
Step 622000
Ar 9.334766e-01 0.000000e+00 0.000000e+00
1
Step 623000
Ar 9.226949e-01 0.000000e+00 0.000000e+00
1
Step 624000
Ar 9.433680e-01 0.000000e+00 0.000000e+00
1
Step 625000
Ar 9.380657e-01 0.000000e+00 0.000000e+00
1
Step 626000
Ar 1.101877e+00 0.000000e+00 0.000000e+00
1
Step 627000
Ar 1.103399e+00 0.000000e+00 0.000000e+00
1
Step 628000
Ar 8.808891e-01 0.000000e+00 0.000000e+00
1
Step 629000
Ar 8.839711e-01 0.000000e+00 0.000000e+00
1
Step 630000
Ar 1.145061e+00 0.000000e+00 0.000000e+00
1
Step 631000
Ar 9.233990e-01 0.000000e+00 0.000000e+00
1
Step 632000
Ar 9.281756e-01 0.000000e+00 0.000000e+00
1
Step 633000
Ar 1.156162e+00 0.000000e+00 0.000000e+00
1
Step 634000
Ar 8.332191e-01 0.000000e+00 0.000000e+00
1
Step 635000
Ar 1.103036e+00 0.000000e+00 0.000000e+00
1
Step 636000
Ar 1.191585e+00 0.000000e+00 0.000000e+00
1
Step 637000
Ar 9.949307e-01 0.000000e+00 0.000000e+00
1
Step 638000
Ar 8.841456e-01 0.000000e+00 0.000000e+00
1
Step 639000
Ar 1.134358e+00 0.000000e+00 0.000000e+00
1
Step 640000
Ar 9.454346e-01 0.000000e+00 0.000000e+00
1
Step 641000
Ar 1.003840e+00 0.000000e+00 0.000000e+00
1
Step 642000
Ar 7.367182e-01 0.000000e+00 0.000000e+00
1
Step 643000
Ar 8.197873e-01 0.000000e+00 0.000000e+00
1
Step 644000
Ar 8.173472e-01 0.000000e+00 0.000000e+00
1
Step 645000
Ar 5.172201e-01 0.000000e+00 0.000000e+00
1
Step 646000
Ar 9.969171e-01 0.000000e+00 0.000000e+00
1
Step 647000
Ar 1.081723e+00 0.000000e+00 0.000000e+00
1
Step 648000
Ar 1.106872e+00 0.000000e+00 0.000000e+00
1
Step 649000
Ar 9.429626e-01 0.000000e+00 0.000000e+00
1
Step 650000
Ar 9.194454e-01 0.000000e+00 0.000000e+00
1
Step 651000
Ar 1.096564e+00 0.000000e+00 0.000000e+00
1
Step 652000
Ar 8.517440e-01 0.000000e+00 0.000000e+00
1
Step 653000
Ar 1.121673e+00 0.000000e+00 0.000000e+00
1
Step 654000
Ar 6.984098e-01 0.000000e+00 0.000000e+00
1
Step 655000