1
Step 120000
Ar 1.003649e+00 0.000000e+00 0.000000e+00
1
Step 121000
Ar 1.002622e+00 0.000000e+00 0.000000e+00
1
Step 122000
Ar 9.956491e-01 0.000000e+00 0.000000e+00
1
Step 123000
Ar 1.005695e+00 0.000000e+00 0.000000e+00
1
Step 124000
Ar 1.011379e+00 0.000000e+00 0.000000e+00
1
Step 125000
Ar 9.810981e-01 0.000000e+00 0.000000e+00
1
Step 126000
Ar 9.669821e-01 0.000000e+00 0.000000e+00
1
Step 127000
Ar 9.696828e-01 0.000000e+00 0.000000e+00
1
Step 128000
Ar 9.688303e-01 0.000000e+00 0.000000e+00
1
Step 129000
Ar 9.640137e-01 0.000000e+00 0.000000e+00
1
Step 130000
Ar 9.587395e-01 0.000000e+00 0.000000e+00
1
Step 131000
Ar 9.665271e-01 0.000000e+00 0.000000e+00
1
Step 132000
Ar 9.690536e-01 0.000000e+00 0.000000e+00
1
Step 133000
Ar 9.645911e-01 0.000000e+00 0.000000e+00
1
Step 134000
Ar 9.688611e-01 0.000000e+00 0.000000e+00
1
Step 135000
Ar 9.727309e-01 0.000000e+00 0.000000e+00
1
Step 136000
Ar 9.633241e-01 0.000000e+00 0.000000e+00
1
Step 137000
Ar 9.603959e-01 0.000000e+00 0.000000e+00
1
Step 138000
Ar 9.691311e-01 0.000000e+00 0.000000e+00
1
Step 139000
Ar 9.682247e-01 0.000000e+00 0.000000e+00
1
Step 140000
Ar 9.732027e-01 0.000000e+00 0.000000e+00
1
Step 141000
Ar 9.649253e-01 0.000000e+00 0.000000e+00
1
Step 142000
Ar 9.678767e-01 0.000000e+00 0.000000e+00
1
Step 143000
Ar 9.662658e-01 0.000000e+00 0.000000e+00
1
Step 144000
Ar 9.926993e-01 0.000000e+00 0.000000e+00
1
Step 145000
Ar 9.980897e-01 0.000000e+00 0.000000e+00
1
Step 146000
Ar 1.003650e+00 0.000000e+00 0.000000e+00
1
Step 147000
Ar 1.026843e+00 0.000000e+00 0.000000e+00
1
Step 148000
Ar 1.034634e+00 0.000000e+00 0.000000e+00
1
Step 149000
Ar 9.946766e-01 0.000000e+00 0.000000e+00
1
Step 150000
Ar 9.537972e-01 0.000000e+00 0.000000e+00
1
Step 151000
Ar 1.083354e+00 0.000000e+00 0.000000e+00
1
Step 152000
Ar 9.183917e-01 0.000000e+00 0.000000e+00
1
Step 153000
Ar 9.183073e-01 0.000000e+00 0.000000e+00
1
Step 154000
Ar 9.156810e-01 0.000000e+00 0.000000e+00
1
Step 155000
Ar 1.131357e+00 0.000000e+00 0.000000e+00
1
Step 156000
Ar 8.778713e-01 0.000000e+00 0.000000e+00
1
Step 157000
Ar 9.236004e-01 0.000000e+00 0.000000e+00
1
Step 158000
Ar 1.059589e+00 0.000000e+00 0.000000e+00
1
Step 159000
Ar 1.064712e+00 0.000000e+00 0.000000e+00
1
Step 160000
Ar 1.058417e+00 0.000000e+00 0.000000e+00
1
Step 161000
Ar 1.069942e+00 0.000000e+00 0.000000e+00
1
Step 162000
Ar 9.179203e-01 0.000000e+00 0.000000e+00
1
Step 163000
Ar 1.091988e+00 0.000000e+00 0.000000e+00
1
Step 164000
Ar 1.022890e+00 0.000000e+00 0.000000e+00
1
Step 165000
Ar 7.500667e-01 0.000000e+00 0.000000e+00
1
Step 166000
Ar 8.450500e-01 0.000000e+00 0.000000e+00
1
Step 167000
Ar 1.036872e+00 0.000000e+00 0.000000e+00
1
Step 168000
Ar 9.881289e-01 0.000000e+00 0.000000e+00
1
Step 169000
Ar 8.750830e-01 0.000000e+00 0.000000e+00
1
Step 170000
Ar 1.127001e+00 0.000000e+00 0.000000e+00
1
Step 171000
Ar 1.125690e+00 0.000000e+00 0.000000e+00
1
Step 172000
Ar 1.138083e+00 0.000000e+00 0.000000e+00
1
Step 173000
Ar 1.026136e+00 0.000000e+00 0.000000e+00
1
Step 174000
Ar 8.705211e-01 0.000000e+00 0.000000e+00
1
Step 175000
Ar 1.129470e+00 0.000000e+00 0.000000e+00
1
Step 176000
Ar 7.019659e-01 0.000000e+00 0.000000e+00
1
Step 177000
Ar 8.687437e-01 0.000000e+00 0.000000e+00
1
Step 178000
Ar 1.082476e+00 0.000000e+00 0.000000e+00
1
Step 179000
Ar 1.087817e+00 0.000000e+00 0.000000e+00
1
Step 180000
Ar 1.127137e+00 0.000000e+00 0.000000e+00
1
Step 181000
Ar 1.216604e+00 0.000000e+00 0.000000e+00
1
Step 182000
Ar 9.767031e-01 0.000000e+00 0.000000e+00
1
Step 183000
Ar 1.166973e+00 0.000000e+00 0.000000e+00
1
Step 184000
Ar 1.273200e+00 0.000000e+00 0.000000e+00
1
Step 185000
Ar 1.143152e+00 0.000000e+00 0.000000e+00
1
Step 186000
Ar 9.492051e-01 0.000000e+00 0.000000e+00
1
Step 187000
Ar 7.438428e-01 0.000000e+00 0.000000e+00
1
Step 188000
Ar 9.426895e-01 0.000000e+00 0.000000e+00
1
Step 189000
Ar 8.775813e-01 0.000000e+00 0.000000e+00
1
Step 190000
Ar 8.795103e-01 0.000000e+00 0.000000e+00
1
Step 191000
Ar 9.694337e-01 0.000000e+00 0.000000e+00
1
Step 192000
Ar 9.867164e-01 0.000000e+00 0.000000e+00
1
Step 193000
Ar 1.083171e+00 0.000000e+00 0.000000e+00
1
Step 194000
Ar 1.083342e+00 0.000000e+00 0.000000e+00
1
Step 195000
Ar 1.020902e+00 0.000000e+00 0.000000e+00
1
Step 196000
Ar 9.682805e-01 0.000000e+00 0.000000e+00
1
Step 197000
Ar 1.210988e+00 0.000000e+00 0.000000e+00
1
Step 198000
Ar 9.504685e-01 0.000000e+00 0.000000e+00
1
Step 199000
Ar 1.099452e+00 0.000000e+00 0.000000e+00
1
Step 200000
Ar 1.093467e+00 0.000000e+00 0.000000e+00
1
Step 201000
Ar 1.089992e+00 0.000000e+00 0.000000e+00
1
Step 202000
Ar 1.091994e+00 0.000000e+00 0.000000e+00
1
Step 203000
Ar 1.291100e+00 0.000000e+00 0.000000e+00
1
Step 204000
Ar 8.311172e-01 0.000000e+00 0.000000e+00
1
Step 205000
Ar 8.694199e-01 0.000000e+00 0.000000e+00
1
Step 206000
Ar 1.004316e+00 0.000000e+00 0.000000e+00
1
Step 207000
Ar 9.410994e-01 0.000000e+00 0.000000e+00
1
Step 208000
Ar 1.010458e+00 0.000000e+00 0.000000e+00
1
Step 209000
Ar 1.031032e+00 0.000000e+00 0.000000e+00
1
Step 210000
Ar 8.671291e-01 0.000000e+00 0.000000e+00
1
Step 211000
Ar 8.662107e-01 0.000000e+00 0.000000e+00
1
Step 212000
Ar 1.052857e+00 0.000000e+00 0.000000e+00
1
Step 213000
Ar 8.556367e-01 0.000000e+00 0.000000e+00
1
Step 214000
Ar 6.175012e-01 0.000000e+00 0.000000e+00
1
Step 215000
Ar 1.076294e+00 0.000000e+00 0.000000e+00
1
Step 216000
Ar 1.039107e+00 0.000000e+00 0.000000e+00
1
Step 217000
Ar 9.127468e-01 0.000000e+00 0.000000e+00
1
Step 218000
Ar 1.205054e+00 0.000000e+00 0.000000e+00
1
Step 219000
Ar 8.544764e-01 0.000000e+00 0.000000e+00
1
Step 220000
Ar 8.500468e-01 0.000000e+00 0.000000e+00
1
Step 221000
Ar 1.085130e+00 0.000000e+00 0.000000e+00
1
Step 222000
Ar 1.092115e+00 0.000000e+00 0.000000e+00
1
Step 223000
Ar 1.209111e+00 0.000000e+00 0.000000e+00
1
Step 224000
Ar 8.600424e-01 0.000000e+00 0.000000e+00
1
Step 225000
Ar 1.046881e+00 0.000000e+00 0.000000e+00
1
Step 226000
Ar 1.027839e+00 0.000000e+00 0.000000e+00
1
Step 227000
Ar 1.061525e+00 0.000000e+00 0.000000e+00
1
Step 228000
Ar 7.985192e-01 0.000000e+00 0.000000e+00
1
Step 229000
Ar 1.067980e+00 0.000000e+00 0.000000e+00
1
Step 230000
Ar 8.202393e-01 0.000000e+00 0.000000e+00
1
Step 231000
Ar 8.334345e-01 0.000000e+00 0.000000e+00
1
Step 232000
Ar 8.339784e-01 0.000000e+00 0.000000e+00
1
Step 233000
Ar 9.023800e-01 0.000000e+00 0.000000e+00
1
Step 234000
Ar 9.602095e-01 0.000000e+00 0.000000e+00
1
Step 235000
Ar 9.670132e-01 0.000000e+00 0.000000e+00
1
Step 236000
Ar 6.685117e-01 0.000000e+00 0.000000e+00
1
Step 237000
Ar 9.782775e-01 0.000000e+00 0.000000e+00
1
Step 238000
Ar 7.383583e-01 0.000000e+00 0.000000e+00
1
Step 239000
Ar 1.008738e+00 0.000000e+00 0.000000e+00
1
Step 240000
Ar 8.326252e-01 0.000000e+00 0.000000e+00
1
Step 241000
Ar 1.157758e+00 0.000000e+00 0.000000e+00
1
Step 242000
Ar 1.084069e+00 0.000000e+00 0.000000e+00
1
Step 243000
Ar 8.322013e-01 0.000000e+00 0.000000e+00
1
Step 244000
Ar 8.340353e-01 0.000000e+00 0.000000e+00
1
Step 245000
Ar 8.313140e-01 0.000000e+00 0.000000e+00
1
Step 246000
Ar 1.182002e+00 0.000000e+00 0.000000e+00
1
Step 247000
Ar 5.493580e-01 0.000000e+00 0.000000e+00
1
Step 248000
Ar 1.277907e+00 0.000000e+00 0.000000e+00
1
Step 249000
Ar 1.185493e+00 0.000000e+00 0.000000e+00
1
Step 250000
Ar 9.044005e-01 0.000000e+00 0.000000e+00
1
Step 251000
Ar 1.066302e+00 0.000000e+00 0.000000e+00
1
Step 252000
Ar 1.071516e+00 0.000000e+00 0.000000e+00
1
Step 253000
Ar 7.791158e-01 0.000000e+00 0.000000e+00
1
Step 254000
Ar 9.617034e-01 0.000000e+00 0.000000e+00
1
Step 255000
Ar 1.054881e+00 0.000000e+00 0.000000e+00
1
Step 256000
Ar 4.555339e-01 0.000000e+00 0.000000e+00
1
Step 257000
Ar 6.310642e-01 0.000000e+00 0.000000e+00
1
Step 258000
Ar 7.553029e-01 0.000000e+00 0.000000e+00
1
Step 259000
Ar 1.119502e+00 0.000000e+00 0.000000e+00
1
Step 260000
Ar 9.685597e-01 0.000000e+00 0.000000e+00
1
Step 261000
Ar 9.181154e-01 0.000000e+00 0.000000e+00
1
Step 262000
Ar 8.788209e-01 0.000000e+00 0.000000e+00
1
Step 263000
Ar 8.888083e-01 0.000000e+00 0.000000e+00
1
Step 264000
Ar 1.085313e+00 0.000000e+00 0.000000e+00
1
Step 265000
Ar 1.086494e+00 0.000000e+00 0.000000e+00
1
Step 266000
Ar 1.081354e+00 0.000000e+00 0.000000e+00
1
Step 267000
Ar 1.089487e+00 0.000000e+00 0.000000e+00
1
Step 268000
Ar 1.085773e+00 0.000000e+00 0.000000e+00
1
Step 269000
Ar 1.107930e+00 0.000000e+00 0.000000e+00
1
Step 270000
Ar 9.552305e-01 0.000000e+00 0.000000e+00
1
Step 271000
Ar 1.039207e+00 0.000000e+00 0.000000e+00
1
Step 272000
Ar 8.908456e-01 0.000000e+00 0.000000e+00
1
Step 273000
Ar 8.970493e-01 0.000000e+00 0.000000e+00
1
Step 274000
Ar 1.079619e+00 0.000000e+00 0.000000e+00
1
Step 275000
Ar 1.239606e+00 0.000000e+00 0.000000e+00
1
Step 276000
Ar 1.256659e+00 0.000000e+00 0.000000e+00
1
Step 277000
Ar 9.848321e-01 0.000000e+00 0.000000e+00
1
Step 278000
Ar 9.625610e-01 0.000000e+00 0.000000e+00
1
Step 279000
Ar 9.552267e-01 0.000000e+00 0.000000e+00
1
Step 280000
Ar 8.536486e-01 0.000000e+00 0.000000e+00
1
Step 281000
Ar 1.135804e+00 0.000000e+00 0.000000e+00
1
Step 282000
Ar -1.014605e+00 0.000000e+00 0.000000e+00
1
Step 283000
Ar -1.003852e+00 0.000000e+00 0.000000e+00
1
Step 284000
Ar -1.004945e+00 0.000000e+00 0.000000e+00
1
Step 285000
Ar -9.965974e-01 0.000000e+00 0.000000e+00
1
Step 286000
Ar -1.005182e+00 0.000000e+00 0.000000e+00
1
Step 287000
Ar -9.932735e-01 0.000000e+00 0.000000e+00
1
Step 288000
Ar -1.002378e+00 0.000000e+00 0.000000e+00
1
Step 289000
Ar -9.915317e-01 0.000000e+00 0.000000e+00
1
Step 290000
Ar -1.000392e+00 0.000000e+00 0.000000e+00
1
Step 291000
Ar -1.019361e+00 0.000000e+00 0.000000e+00
1
Step 292000
Ar -9.987701e-01 0.000000e+00 0.000000e+00
1
Step 293000
Ar -1.021374e+00 0.000000e+00 0.000000e+00
1
Step 294000
Ar -1.005561e+00 0.000000e+00 0.000000e+00
1
Step 295000
Ar -1.015240e+00 0.000000e+00 0.000000e+00
1
Step 296000
Ar -1.071397e+00 0.000000e+00 0.000000e+00
1
Step 297000
Ar -1.062259e+00 0.000000e+00 0.000000e+00
1
Step 298000
Ar -1.060080e+00 0.000000e+00 0.000000e+00
1
Step 299000
Ar -9.600138e-01 0.000000e+00 0.000000e+00
1
Step 300000
Ar -9.548357e-01 0.000000e+00 0.000000e+00
1
Step 301000
Ar -9.660220e-01 0.000000e+00 0.000000e+00
1
Step 302000
Ar -9.630500e-01 0.000000e+00 0.000000e+00
1
Step 303000
Ar -1.036186e+00 0.000000e+00 0.000000e+00
1
Step 304000
Ar -9.503507e-01 0.000000e+00 0.000000e+00
1
Step 305000
Ar -9.486442e-01 0.000000e+00 0.000000e+00
1
Step 306000
Ar -9.487883e-01 0.000000e+00 0.000000e+00
1
Step 307000
Ar -9.920788e-01 0.000000e+00 0.000000e+00
1
Step 308000
Ar -8.610061e-01 0.000000e+00 0.000000e+00
1
Step 309000
Ar -1.052466e+00 0.000000e+00 0.000000e+00
1
Step 310000
Ar -9.314582e-01 0.000000e+00 0.000000e+00
1
Step 311000
Ar -9.311018e-01 0.000000e+00 0.000000e+00
1
Step 312000
Ar -9.296387e-01 0.000000e+00 0.000000e+00
1
Step 313000
Ar -9.268858e-01 0.000000e+00 0.000000e+00
1
Step 314000
Ar -9.319962e-01 0.000000e+00 0.000000e+00
1
Step 315000
Ar -9.238983e-01 0.000000e+00 0.000000e+00
1
Step 316000
Ar -9.325835e-01 0.000000e+00 0.000000e+00
1
Step 317000
Ar -9.239069e-01 0.000000e+00 0.000000e+00
1
Step 318000
Ar -1.070515e+00 0.000000e+00 0.000000e+00
1
Step 319000
Ar -9.606437e-01 0.000000e+00 0.000000e+00
1
Step 320000
Ar -1.079146e+00 0.000000e+00 0.000000e+00
1
Step 321000
Ar -1.084538e+00 0.000000e+00 0.000000e+00
1
Step 322000
Ar -9.294752e-01 0.000000e+00 0.000000e+00
1
Step 323000
Ar -9.320318e-01 0.000000e+00 0.000000e+00
1
Step 324000
Ar -9.314896e-01 0.000000e+00 0.000000e+00
1
Step 325000
Ar -9.282950e-01 0.000000e+00 0.000000e+00
1
Step 326000
Ar -9.337433e-01 0.000000e+00 0.000000e+00
1
Step 327000
Ar -9.291814e-01 0.000000e+00 0.000000e+00
1
Step 328000
Ar -9.304123e-01 0.000000e+00 0.000000e+00
1
Step 329000
Ar -9.313027e-01 0.000000e+00 0.000000e+00
1
Step 330000
Ar -9.328487e-01 0.000000e+00 0.000000e+00
1
Step 331000
Ar -9.336362e-01 0.000000e+00 0.000000e+00
1
Step 332000
Ar -9.334052e-01 0.000000e+00 0.000000e+00
1
Step 333000
Ar -9.815962e-01 0.000000e+00 0.000000e+00
1
Step 334000
Ar -9.806546e-01 0.000000e+00 0.000000e+00
1
Step 335000
Ar -1.031328e+00 0.000000e+00 0.000000e+00
1
Step 336000
Ar -9.739366e-01 0.000000e+00 0.000000e+00
1
Step 337000
Ar -1.018623e+00 0.000000e+00 0.000000e+00
1
Step 338000
Ar -9.825123e-01 0.000000e+00 0.000000e+00
1
Step 339000
Ar -9.984170e-01 0.000000e+00 0.000000e+00
1
Step 340000
Ar -1.094642e+00 0.000000e+00 0.000000e+00
1
Step 341000
Ar -8.792953e-01 0.000000e+00 0.000000e+00
1
Step 342000
Ar -9.573472e-01 0.000000e+00 0.000000e+00
1
Step 343000
Ar -9.830032e-01 0.000000e+00 0.000000e+00
1
Step 344000
Ar -9.840358e-01 0.000000e+00 0.000000e+00
1
Step 345000
Ar -1.021948e+00 0.000000e+00 0.000000e+00
1
Step 346000
Ar -9.987784e-01 0.000000e+00 0.000000e+00
1
Step 347000
Ar -9.866843e-01 0.000000e+00 0.000000e+00
1
Step 348000
Ar -9.158928e-01 0.000000e+00 0.000000e+00
1
Step 349000
Ar -9.203724e-01 0.000000e+00 0.000000e+00
1
Step 350000
Ar -9.217641e-01 0.000000e+00 0.000000e+00
1
Step 351000
Ar -9.182865e-01 0.000000e+00 0.000000e+00
1
Step 352000
Ar -9.162198e-01 0.000000e+00 0.000000e+00
1
Step 353000
Ar -9.161772e-01 0.000000e+00 0.000000e+00
1
Step 354000
Ar -9.219965e-01 0.000000e+00 0.000000e+00
1
Step 355000
Ar -9.256762e-01 0.000000e+00 0.000000e+00
1
Step 356000
Ar -9.827525e-01 0.000000e+00 0.000000e+00
1
Step 357000
Ar -9.714447e-01 0.000000e+00 0.000000e+00
1
Step 358000
Ar -1.082703e+00 0.000000e+00 0.000000e+00
1
Step 359000
Ar -1.081895e+00 0.000000e+00 0.000000e+00
1
Step 360000
Ar -1.082503e+00 0.000000e+00 0.000000e+00
1
Step 361000
Ar -1.087004e+00 0.000000e+00 0.000000e+00
1
Step 362000
Ar -1.081458e+00 0.000000e+00 0.000000e+00
1
Step 363000
Ar -9.840151e-01 0.000000e+00 0.000000e+00
1
Step 364000
Ar -1.019969e+00 0.000000e+00 0.000000e+00
1
Step 365000
Ar -9.118033e-01 0.000000e+00 0.000000e+00
1
Step 366000
Ar -9.019084e-01 0.000000e+00 0.000000e+00
1
Step 367000
Ar -9.020370e-01 0.000000e+00 0.000000e+00
1
Step 368000
Ar -9.029189e-01 0.000000e+00 0.000000e+00
1
Step 369000
Ar -9.050768e-01 0.000000e+00 0.000000e+00
1
Step 370000
Ar -1.030952e+00 0.000000e+00 0.000000e+00
1
Step 371000
Ar -1.018637e+00 0.000000e+00 0.000000e+00
1
Step 372000
Ar -9.828175e-01 0.000000e+00 0.000000e+00
1
Step 373000
Ar -1.124822e+00 0.000000e+00 0.000000e+00
1
Step 374000
Ar -9.538028e-01 0.000000e+00 0.000000e+00
1
Step 375000
Ar -1.002499e+00 0.000000e+00 0.000000e+00
1
Step 376000
Ar -9.438187e-01 0.000000e+00 0.000000e+00
1
Step 377000
Ar -9.405534e-01 0.000000e+00 0.000000e+00
1
Step 378000
Ar -9.409425e-01 0.000000e+00 0.000000e+00
1
Step 379000
Ar -9.500265e-01 0.000000e+00 0.000000e+00
1
Step 380000
Ar -9.395498e-01 0.000000e+00 0.000000e+00
1
Step 381000
Ar -9.518421e-01 0.000000e+00 0.000000e+00
1
Step 382000
Ar -1.081922e+00 0.000000e+00 0.000000e+00
1
Step 383000
Ar -1.082129e+00 0.000000e+00 0.000000e+00
1
Step 384000
Ar -9.388866e-01 0.000000e+00 0.000000e+00
1
Step 385000
Ar -9.428559e-01 0.000000e+00 0.000000e+00
1
Step 386000
Ar -9.422219e-01 0.000000e+00 0.000000e+00
1
Step 387000
Ar -9.446740e-01 0.000000e+00 0.000000e+00
1
Step 388000
Ar -9.393750e-01 0.000000e+00 0.000000e+00
1
Step 389000
Ar -1.019700e+00 0.000000e+00 0.000000e+00
1
Step 390000
Ar -9.060140e-01 0.000000e+00 0.000000e+00
1
Step 391000
Ar -9.094124e-01 0.000000e+00 0.000000e+00
1
Step 392000
Ar -8.990854e-01 0.000000e+00 0.000000e+00
1
Step 393000
Ar -9.003044e-01 0.000000e+00 0.000000e+00
1
Step 394000
Ar -9.031688e-01 0.000000e+00 0.000000e+00
1
Step 395000
Ar -9.147426e-01 0.000000e+00 0.000000e+00
1
Step 396000
Ar -1.023851e+00 0.000000e+00 0.000000e+00
1
Step 397000
Ar -1.023022e+00 0.000000e+00 0.000000e+00
1
Step 398000
Ar -1.020135e+00 0.000000e+00 0.000000e+00
1
Step 399000
Ar -1.017286e+00 0.000000e+00 0.000000e+00
1
Step 400000
Ar -9.887012e-01 0.000000e+00 0.000000e+00
1
Step 401000
Ar -8.910725e-01 0.000000e+00 0.000000e+00
1
Step 402000
Ar -1.061188e+00 0.000000e+00 0.000000e+00
1
Step 403000
Ar -9.556305e-01 0.000000e+00 0.000000e+00
1
Step 404000
Ar -1.082730e+00 0.000000e+00 0.000000e+00
1
Step 405000
Ar -1.083879e+00 0.000000e+00 0.000000e+00
1
Step 406000
Ar -1.082937e+00 0.000000e+00 0.000000e+00
1
Step 407000
Ar -1.080236e+00 0.000000e+00 0.000000e+00
1
Step 408000
Ar -1.094362e+00 0.000000e+00 0.000000e+00
1
Step 409000
Ar -1.092440e+00 0.000000e+00 0.000000e+00
1
Step 410000
Ar -9.840659e-01 0.000000e+00 0.000000e+00
1
Step 411000
Ar -9.186589e-01 0.000000e+00 0.000000e+00
1
Step 412000
Ar -1.108663e+00 0.000000e+00 0.000000e+00
1
Step 413000
Ar -8.919446e-01 0.000000e+00 0.000000e+00
1
Step 414000
Ar -8.930984e-01 0.000000e+00 0.000000e+00
1
Step 415000
Ar -8.893567e-01 0.000000e+00 0.000000e+00
1
Step 416000
Ar -8.895634e-01 0.000000e+00 0.000000e+00
1
Step 417000
Ar -8.949747e-01 0.000000e+00 0.000000e+00
1
Step 418000
Ar -8.936259e-01 0.000000e+00 0.000000e+00
1
Step 419000
Ar -8.918317e-01 0.000000e+00 0.000000e+00
1
Step 420000
Ar -8.903573e-01 0.000000e+00 0.000000e+00
1
Step 421000
Ar -8.937848e-01 0.000000e+00 0.000000e+00
1
Step 422000
Ar -8.905891e-01 0.000000e+00 0.000000e+00
1
Step 423000
Ar -8.921598e-01 0.000000e+00 0.000000e+00
1
Step 424000
Ar -8.903471e-01 0.000000e+00 0.000000e+00
1
Step 425000
Ar -8.933576e-01 0.000000e+00 0.000000e+00
1
Step 426000
Ar -8.900468e-01 0.000000e+00 0.000000e+00
1
Step 427000
Ar -8.897957e-01 0.000000e+00 0.000000e+00
1
Step 428000
Ar -8.950057e-01 0.000000e+00 0.000000e+00
1
Step 429000
Ar -8.888529e-01 0.000000e+00 0.000000e+00
1
Step 430000
Ar -9.986674e-01 0.000000e+00 0.000000e+00
1
Step 431000
Ar -1.105160e+00 0.000000e+00 0.000000e+00
1
Step 432000
Ar -8.400301e-01 0.000000e+00 0.000000e+00
1
Step 433000
Ar -1.079628e+00 0.000000e+00 0.000000e+00
1
Step 434000
Ar -1.052509e+00 0.000000e+00 0.000000e+00
1
Step 435000
Ar -1.120384e+00 0.000000e+00 0.000000e+00
1
Step 436000
Ar -1.070963e+00 0.000000e+00 0.000000e+00
1
Step 437000
Ar -9.427598e-01 0.000000e+00 0.000000e+00
1
Step 438000
Ar -1.131841e+00 0.000000e+00 0.000000e+00
1
Step 439000
Ar -1.024545e+00 0.000000e+00 0.000000e+00
1
Step 440000
Ar -1.117341e+00 0.000000e+00 0.000000e+00
1
Step 441000
Ar -8.769928e-01 0.000000e+00 0.000000e+00
1
Step 442000
Ar -9.012882e-01 0.000000e+00 0.000000e+00
1
Step 443000
Ar -8.842038e-01 0.000000e+00 0.000000e+00
1
Step 444000
Ar -8.954459e-01 0.000000e+00 0.000000e+00
1
Step 445000
Ar -8.945659e-01 0.000000e+00 0.000000e+00
1
Step 446000
Ar -1.096873e+00 0.000000e+00 0.000000e+00
1
Step 447000
Ar -8.772600e-01 0.000000e+00 0.000000e+00
1
Step 448000
Ar -8.774524e-01 0.000000e+00 0.000000e+00
1
Step 449000
Ar -8.774930e-01 0.000000e+00 0.000000e+00
1
Step 450000
Ar -8.784503e-01 0.000000e+00 0.000000e+00
1
Step 451000
Ar -8.780092e-01 0.000000e+00 0.000000e+00
1
Step 452000
Ar -1.071010e+00 0.000000e+00 0.000000e+00
1
Step 453000
Ar -9.882011e-01 0.000000e+00 0.000000e+00
1
Step 454000
Ar -1.083586e+00 0.000000e+00 0.000000e+00
1
Step 455000
Ar -8.961942e-01 0.000000e+00 0.000000e+00
1
Step 456000
Ar -8.732567e-01 0.000000e+00 0.000000e+00
1
Step 457000
Ar -8.759262e-01 0.000000e+00 0.000000e+00
1
Step 458000
Ar -8.804095e-01 0.000000e+00 0.000000e+00
1
Step 459000
Ar -8.807041e-01 0.000000e+00 0.000000e+00
1
Step 460000
Ar -8.805985e-01 0.000000e+00 0.000000e+00
1
Step 461000
Ar -8.791572e-01 0.000000e+00 0.000000e+00
1
Step 462000
Ar -8.767901e-01 0.000000e+00 0.000000e+00
1
Step 463000
Ar -1.046439e+00 0.000000e+00 0.000000e+00
1
Step 464000
Ar -7.662311e-01 0.000000e+00 0.000000e+00
1
Step 465000
Ar -9.491787e-01 0.000000e+00 0.000000e+00
1
Step 466000
Ar -1.022457e+00 0.000000e+00 0.000000e+00
1
Step 467000
Ar -1.009632e+00 0.000000e+00 0.000000e+00
1
Step 468000
Ar -7.785585e-01 0.000000e+00 0.000000e+00
1
Step 469000
Ar -1.040470e+00 0.000000e+00 0.000000e+00
1
Step 470000
Ar -7.909262e-01 0.000000e+00 0.000000e+00
1
Step 471000
Ar -1.054800e+00 0.000000e+00 0.000000e+00
1
Step 472000
Ar -9.735742e-01 0.000000e+00 0.000000e+00
1
Step 473000
Ar -8.306502e-01 0.000000e+00 0.000000e+00
1
Step 474000
Ar -9.180864e-01 0.000000e+00 0.000000e+00
1
Step 475000
Ar -9.897565e-01 0.000000e+00 0.000000e+00
1
Step 476000
Ar -9.916809e-01 0.000000e+00 0.000000e+00
1
Step 477000
Ar -9.865668e-01 0.000000e+00 0.000000e+00
1
Step 478000
Ar -9.742026e-01 0.000000e+00 0.000000e+00
1
Step 479000
Ar -9.724140e-01 0.000000e+00 0.000000e+00
1
Step 480000
Ar -1.117686e+00 0.000000e+00 0.000000e+00
1
Step 481000
Ar -1.114110e+00 0.000000e+00 0.000000e+00
1
Step 482000
Ar -7.891049e-01 0.000000e+00 0.000000e+00
1
Step 483000
Ar -9.360206e-01 0.000000e+00 0.000000e+00
1
Step 484000
Ar -1.124178e+00 0.000000e+00 0.000000e+00
1
Step 485000
Ar -9.719540e-01 0.000000e+00 0.000000e+00
1
Step 486000
Ar -9.711081e-01 0.000000e+00 0.000000e+00
1
Step 487000
Ar -9.674541e-01 0.000000e+00 0.000000e+00
1
Step 488000
Ar -6.543881e-01 0.000000e+00 0.000000e+00
1
Step 489000
Ar -1.014618e+00 0.000000e+00 0.000000e+00
1
Step 490000
Ar -7.697304e-01 0.000000e+00 0.000000e+00
1
Step 491000
Ar -8.565863e-01 0.000000e+00 0.000000e+00
1
Step 492000
Ar -8.554087e-01 0.000000e+00 0.000000e+00
1
Step 493000
Ar -1.048566e+00 0.000000e+00 0.000000e+00
1
Step 494000
Ar -1.125237e+00 0.000000e+00 0.000000e+00
1
Step 495000
Ar -1.095898e+00 0.000000e+00 0.000000e+00
1
Step 496000
Ar -4.910125e-01 0.000000e+00 0.000000e+00
1
Step 497000
Ar -5.966047e-01 0.000000e+00 0.000000e+00
1
Step 498000
Ar -9.064161e-01 0.000000e+00 0.000000e+00
1
Step 499000
Ar -1.014386e+00 0.000000e+00 0.000000e+00
1
Step 500000
Ar -9.672819e-01 0.000000e+00 0.000000e+00
1
Step 501000
Ar -1.108130e+00 0.000000e+00 0.000000e+00
1
Step 502000
Ar -1.082221e+00 0.000000e+00 0.000000e+00
1
Step 503000
Ar -9.473828e-01 0.000000e+00 0.000000e+00
1
Step 504000
Ar -9.544847e-01 0.000000e+00 0.000000e+00
1
Step 505000
Ar -9.546098e-01 0.000000e+00 0.000000e+00
1
Step 506000
Ar -1.025357e+00 0.000000e+00 0.000000e+00
1
Step 507000
Ar -9.059583e-01 0.000000e+00 0.000000e+00
1
Step 508000
Ar -9.018293e-01 0.000000e+00 0.000000e+00
1
Step 509000
Ar -9.083426e-01 0.000000e+00 0.000000e+00
1
Step 510000
Ar -1.270515e+00 0.000000e+00 0.000000e+00
1
Step 511000
Ar -9.970111e-01 0.000000e+00 0.000000e+00
1
Step 512000
Ar -1.217441e+00 0.000000e+00 0.000000e+00
1
Step 513000
Ar -9.769751e-01 0.000000e+00 0.000000e+00
1
Step 514000
Ar -1.061562e+00 0.000000e+00 0.000000e+00
1
Step 515000
Ar -1.087208e+00 0.000000e+00 0.000000e+00
1
Step 516000
Ar -1.084147e+00 0.000000e+00 0.000000e+00
1
Step 517000
Ar -1.080525e+00 0.000000e+00 0.000000e+00
1
Step 518000
Ar -1.073854e+00 0.000000e+00 0.000000e+00
1
Step 519000
Ar -6.719098e-01 0.000000e+00 0.000000e+00
1
Step 520000
Ar -7.555661e-01 0.000000e+00 0.000000e+00
1
Step 521000
Ar -1.148279e+00 0.000000e+00 0.000000e+00
1
Step 522000
Ar -1.147165e+00 0.000000e+00 0.000000e+00
1
Step 523000
Ar -7.075055e-01 0.000000e+00 0.000000e+00
1
Step 524000
Ar -1.003039e+00 0.000000e+00 0.000000e+00
1
Step 525000
Ar -1.083303e+00 0.000000e+00 0.000000e+00
1
Step 526000
Ar -1.234260e+00 0.000000e+00 0.000000e+00
1
Step 527000
Ar -8.570719e-01 0.000000e+00 0.000000e+00
1
Step 528000
Ar -1.086514e+00 0.000000e+00 0.000000e+00
1
Step 529000
Ar -1.079422e+00 0.000000e+00 0.000000e+00
1
Step 530000
Ar -1.029838e+00 0.000000e+00 0.000000e+00
1
Step 531000
Ar -1.029304e+00 0.000000e+00 0.000000e+00
1
Step 532000
Ar -9.692967e-01 0.000000e+00 0.000000e+00
1
Step 533000
Ar -7.508345e-01 0.000000e+00 0.000000e+00
1
Step 534000
Ar -9.097288e-01 0.000000e+00 0.000000e+00
1
Step 535000
Ar -8.962840e-01 0.000000e+00 0.000000e+00
1
Step 536000
Ar -9.146151e-01 0.000000e+00 0.000000e+00
1
Step 537000
Ar -8.740354e-01 0.000000e+00 0.000000e+00
1
Step 538000
Ar -1.098651e+00 0.000000e+00 0.000000e+00
1
Step 539000
Ar -1.211216e+00 0.000000e+00 0.000000e+00
1
Step 540000
Ar -8.706681e-01 0.000000e+00 0.000000e+00
1
Step 541000
Ar -8.699228e-01 0.000000e+00 0.000000e+00
1
Step 542000
Ar -5.265735e-01 0.000000e+00 0.000000e+00
1
Step 543000
Ar -8.781051e-01 0.000000e+00 0.000000e+00
1
Step 544000
Ar -6.251222e-01 0.000000e+00 0.000000e+00
1
Step 545000
Ar -8.118655e-01 0.000000e+00 0.000000e+00
1
Step 546000
Ar -1.200341e+00 0.000000e+00 0.000000e+00
1
Step 547000
Ar -9.338303e-01 0.000000e+00 0.000000e+00
1
Step 548000
Ar -1.019349e+00 0.000000e+00 0.000000e+00
1
Step 549000
Ar -1.017571e+00 0.000000e+00 0.000000e+00
1
Step 550000
Ar -1.016588e+00 0.000000e+00 0.000000e+00
1
Step 551000
Ar -9.548370e-01 0.000000e+00 0.000000e+00
1
Step 552000
Ar -9.678320e-01 0.000000e+00 0.000000e+00
1
Step 553000
Ar -9.850683e-01 0.000000e+00 0.000000e+00
1
Step 554000
Ar -1.010949e+00 0.000000e+00 0.000000e+00
1
Step 555000
Ar -1.016351e+00 0.000000e+00 0.000000e+00
1
Step 556000
Ar -1.012026e+00 0.000000e+00 0.000000e+00
1
Step 557000
Ar -1.016509e+00 0.000000e+00 0.000000e+00
1
Step 558000
Ar -8.753287e-01 0.000000e+00 0.000000e+00
1
Step 559000
Ar -8.819646e-01 0.000000e+00 0.000000e+00
1
Step 560000
Ar -1.018250e+00 0.000000e+00 0.000000e+00
1
Step 561000
Ar -8.308171e-01 0.000000e+00 0.000000e+00
1
Step 562000
Ar -1.098770e+00 0.000000e+00 0.000000e+00
1
Step 563000
Ar -8.391306e-01 0.000000e+00 0.000000e+00
1
Step 564000
Ar -8.385535e-01 0.000000e+00 0.000000e+00
1
Step 565000
Ar -8.403889e-01 0.000000e+00 0.000000e+00
1
Step 566000
Ar -8.359546e-01 0.000000e+00 0.000000e+00
1
Step 567000
Ar -9.152316e-01 0.000000e+00 0.000000e+00
1
Step 568000
Ar -8.779707e-01 0.000000e+00 0.000000e+00
1
Step 569000
Ar -1.016443e+00 0.000000e+00 0.000000e+00
1
Step 570000
Ar -1.011275e+00 0.000000e+00 0.000000e+00
1
Step 571000
Ar -1.027755e+00 0.000000e+00 0.000000e+00
1
Step 572000
Ar 9.815777e-01 0.000000e+00 0.000000e+00
1
Step 573000
Ar 9.413438e-01 0.000000e+00 0.000000e+00
1
Step 574000
Ar 7.750335e-01 0.000000e+00 0.000000e+00
1
Step 575000
Ar 6.881211e-01 0.000000e+00 0.000000e+00
1
Step 576000
Ar 6.642429e-01 0.000000e+00 0.000000e+00
1
Step 577000
Ar 9.502992e-01 0.000000e+00 0.000000e+00
1
Step 578000
Ar -1.219291e+00 0.000000e+00 0.000000e+00
1
Step 579000
Ar -1.021788e+00 0.000000e+00 0.000000e+00
1
Step 580000
Ar -1.045897e+00 0.000000e+00 0.000000e+00
1
Step 581000
Ar -1.089636e+00 0.000000e+00 0.000000e+00
1
Step 582000
Ar -1.063909e+00 0.000000e+00 0.000000e+00
1
Step 583000
Ar -9.426234e-01 0.000000e+00 0.000000e+00
1
Step 584000
Ar -1.025736e+00 0.000000e+00 0.000000e+00
1
Step 585000
Ar -8.160425e-01 0.000000e+00 0.000000e+00
1
Step 586000
Ar -1.078639e+00 0.000000e+00 0.000000e+00
1
Step 587000
Ar -1.153491e+00 0.000000e+00 0.000000e+00
1
Step 588000
Ar -1.043526e+00 0.000000e+00 0.000000e+00
1
Step 589000
Ar -8.638950e-01 0.000000e+00 0.000000e+00
1
Step 590000
Ar -1.039885e+00 0.000000e+00 0.000000e+00
1
Step 591000
Ar -1.056060e+00 0.000000e+00 0.000000e+00
1
Step 592000
Ar -9.182067e-01 0.000000e+00 0.000000e+00
1
Step 593000
Ar -1.147166e+00 0.000000e+00 0.000000e+00
1
Step 594000
Ar -1.150520e+00 0.000000e+00 0.000000e+00
1
Step 595000
Ar -1.044981e+00 0.000000e+00 0.000000e+00
1
Step 596000
Ar -8.785236e-01 0.000000e+00 0.000000e+00
1
Step 597000
Ar -9.264554e-01 0.000000e+00 0.000000e+00
1
Step 598000
Ar -1.019692e+00 0.000000e+00 0.000000e+00
1
Step 599000
Ar -1.282925e+00 0.000000e+00 0.000000e+00
1
Step 600000
Ar 1.168865e+00 0.000000e+00 0.000000e+00
1
Step 601000
Ar -2.273811e-01 0.000000e+00 0.000000e+00
1
Step 602000
Ar -9.722169e-01 0.000000e+00 0.000000e+00
1
Step 603000
Ar -1.040689e+00 0.000000e+00 0.000000e+00
1
Step 604000
Ar -8.882810e-01 0.000000e+00 0.000000e+00
1
Step 605000
Ar -8.832585e-01 0.000000e+00 0.000000e+00
1
Step 606000
Ar -9.345879e-01 0.000000e+00 0.000000e+00
1
Step 607000
Ar -1.007295e+00 0.000000e+00 0.000000e+00
1
Step 608000
Ar -1.107773e+00 0.000000e+00 0.000000e+00
1
Step 609000
Ar -7.050833e-01 0.000000e+00 0.000000e+00
1
Step 610000
Ar -7.536543e-01 0.000000e+00 0.000000e+00
1
Step 611000
Ar -6.118149e-01 0.000000e+00 0.000000e+00
1
Step 612000
Ar -1.381367e+00 0.000000e+00 0.000000e+00
1
Step 613000
Ar -1.080839e+00 0.000000e+00 0.000000e+00
1
Step 614000
Ar -8.679875e-01 0.000000e+00 0.000000e+00
1
Step 615000
Ar -1.175812e+00 0.000000e+00 0.000000e+00
1
Step 616000
Ar -1.667733e-01 0.000000e+00 0.000000e+00
1
Step 617000
Ar -1.053694e+00 0.000000e+00 0.000000e+00
1
Step 618000
Ar -9.021789e-01 0.000000e+00 0.000000e+00
1
Step 619000
Ar -8.425870e-01 0.000000e+00 0.000000e+00
1
Step 620000
Ar -1.182926e+00 0.000000e+00 0.000000e+00
1
Step 621000
Ar -6.921321e-01 0.000000e+00 0.000000e+00
1
Step 622000
Ar -7.996454e-01 0.000000e+00 0.000000e+00
1
Step 623000
Ar -9.966146e-01 0.000000e+00 0.000000e+00
1
Step 624000
Ar -1.098107e+00 0.000000e+00 0.000000e+00
1
Step 625000
Ar -7.866824e-01 0.000000e+00 0.000000e+00
1
Step 626000
Ar -7.659377e-01 0.000000e+00 0.000000e+00
1
Step 627000
Ar -1.051177e+00 0.000000e+00 0.000000e+00
1
Step 628000
Ar -9.699791e-01 0.000000e+00 0.000000e+00
1
Step 629000
Ar -1.274880e+00 0.000000e+00 0.000000e+00
1
Step 630000
Ar -6.367198e-01 0.000000e+00 0.000000e+00
1
Step 631000
Ar -9.402379e-01 0.000000e+00 0.000000e+00
1
Step 632000
Ar -9.938542e-01 0.000000e+00 0.000000e+00
1
Step 633000
Ar -8.032770e-01 0.000000e+00 0.000000e+00
1
Step 634000
Ar -8.022505e-01 0.000000e+00 0.000000e+00
1
Step 635000
Ar -8.127092e-01 0.000000e+00 0.000000e+00
1
Step 636000
Ar -8.062223e-01 0.000000e+00 0.000000e+00
1
Step 637000
Ar -7.912685e-01 0.000000e+00 0.000000e+00
1
Step 638000
Ar -1.146558e+00 0.000000e+00 0.000000e+00
1
Step 639000
Ar -1.234854e+00 0.000000e+00 0.000000e+00
1
Step 640000
Ar -8.476284e-01 0.000000e+00 0.000000e+00
1
Step 641000
Ar 9.591933e-01 0.000000e+00 0.000000e+00
1
Step 642000
Ar 9.477307e-01 0.000000e+00 0.000000e+00
1
Step 643000
Ar 8.960684e-01 0.000000e+00 0.000000e+00
1
Step 644000
Ar 8.141065e-01 0.000000e+00 0.000000e+00
1
Step 645000
Ar 9.598691e-01 0.000000e+00 0.000000e+00
1
Step 646000
Ar 9.729494e-01 0.000000e+00 0.000000e+00
1
Step 647000
Ar 8.166372e-01 0.000000e+00 0.000000e+00
1
Step 648000
Ar 9.606331e-01 0.000000e+00 0.000000e+00
1
Step 649000