1
Step 120000
Ar 1.005211e+00 0.000000e+00 0.000000e+00
1
Step 121000
Ar 1.003538e+00 0.000000e+00 0.000000e+00
1
Step 122000
Ar 9.943801e-01 0.000000e+00 0.000000e+00
1
Step 123000
Ar 1.001926e+00 0.000000e+00 0.000000e+00
1
Step 124000
Ar 1.021696e+00 0.000000e+00 0.000000e+00
1
Step 125000
Ar 1.003031e+00 0.000000e+00 0.000000e+00
1
Step 126000
Ar 9.873712e-01 0.000000e+00 0.000000e+00
1
Step 127000
Ar 9.960248e-01 0.000000e+00 0.000000e+00
1
Step 128000
Ar 1.018918e+00 0.000000e+00 0.000000e+00
1
Step 129000
Ar 1.018131e+00 0.000000e+00 0.000000e+00
1
Step 130000
Ar 1.036110e+00 0.000000e+00 0.000000e+00
1
Step 131000
Ar 1.032709e+00 0.000000e+00 0.000000e+00
1
Step 132000
Ar 9.949946e-01 0.000000e+00 0.000000e+00
1
Step 133000
Ar 9.605925e-01 0.000000e+00 0.000000e+00
1
Step 134000
Ar 1.080632e+00 0.000000e+00 0.000000e+00
1
Step 135000
Ar 9.939600e-01 0.000000e+00 0.000000e+00
1
Step 136000
Ar 1.042890e+00 0.000000e+00 0.000000e+00
1
Step 137000
Ar 1.044778e+00 0.000000e+00 0.000000e+00
1
Step 138000
Ar 1.051934e+00 0.000000e+00 0.000000e+00
1
Step 139000
Ar 1.046961e+00 0.000000e+00 0.000000e+00
1
Step 140000
Ar 1.054266e+00 0.000000e+00 0.000000e+00
1
Step 141000
Ar 1.039822e+00 0.000000e+00 0.000000e+00
1
Step 142000
Ar 1.045566e+00 0.000000e+00 0.000000e+00
1
Step 143000
Ar 1.045581e+00 0.000000e+00 0.000000e+00
1
Step 144000
Ar 1.057974e+00 0.000000e+00 0.000000e+00
1
Step 145000
Ar 9.442129e-01 0.000000e+00 0.000000e+00
1
Step 146000
Ar 9.521550e-01 0.000000e+00 0.000000e+00
1
Step 147000
Ar 9.556325e-01 0.000000e+00 0.000000e+00
1
Step 148000
Ar 9.560736e-01 0.000000e+00 0.000000e+00
1
Step 149000
Ar 9.519034e-01 0.000000e+00 0.000000e+00
1
Step 150000
Ar 9.518872e-01 0.000000e+00 0.000000e+00
1
Step 151000
Ar 9.542444e-01 0.000000e+00 0.000000e+00
1
Step 152000
Ar 9.522845e-01 0.000000e+00 0.000000e+00
1
Step 153000
Ar 9.561628e-01 0.000000e+00 0.000000e+00
1
Step 154000
Ar 9.496027e-01 0.000000e+00 0.000000e+00
1
Step 155000
Ar 9.413473e-01 0.000000e+00 0.000000e+00
1
Step 156000
Ar 9.464160e-01 0.000000e+00 0.000000e+00
1
Step 157000
Ar 9.474429e-01 0.000000e+00 0.000000e+00
1
Step 158000
Ar 9.420211e-01 0.000000e+00 0.000000e+00
1
Step 159000
Ar 9.283221e-01 0.000000e+00 0.000000e+00
1
Step 160000
Ar 9.312365e-01 0.000000e+00 0.000000e+00
1
Step 161000
Ar 9.273635e-01 0.000000e+00 0.000000e+00
1
Step 162000
Ar 9.348659e-01 0.000000e+00 0.000000e+00
1
Step 163000
Ar 9.348035e-01 0.000000e+00 0.000000e+00
1
Step 164000
Ar 9.938687e-01 0.000000e+00 0.000000e+00
1
Step 165000
Ar 1.011750e+00 0.000000e+00 0.000000e+00
1
Step 166000
Ar 9.999227e-01 0.000000e+00 0.000000e+00
1
Step 167000
Ar 1.036507e+00 0.000000e+00 0.000000e+00
1
Step 168000
Ar 9.001189e-01 0.000000e+00 0.000000e+00
1
Step 169000
Ar 1.027463e+00 0.000000e+00 0.000000e+00
1
Step 170000
Ar 1.025839e+00 0.000000e+00 0.000000e+00
1
Step 171000
Ar 8.915836e-01 0.000000e+00 0.000000e+00
1
Step 172000
Ar 8.715027e-01 0.000000e+00 0.000000e+00
1
Step 173000
Ar 6.765258e-01 0.000000e+00 0.000000e+00
1
Step 174000
Ar 1.006719e+00 0.000000e+00 0.000000e+00
1
Step 175000
Ar 1.016975e+00 0.000000e+00 0.000000e+00
1
Step 176000
Ar 1.012829e+00 0.000000e+00 0.000000e+00
1
Step 177000
Ar 9.711816e-01 0.000000e+00 0.000000e+00
1
Step 178000
Ar 7.667062e-01 0.000000e+00 0.000000e+00
1
Step 179000
Ar 8.090672e-01 0.000000e+00 0.000000e+00
1
Step 180000
Ar 1.012646e+00 0.000000e+00 0.000000e+00
1
Step 181000
Ar 1.091721e+00 0.000000e+00 0.000000e+00
1
Step 182000
Ar 9.178281e-01 0.000000e+00 0.000000e+00
1
Step 183000
Ar 7.770693e-01 0.000000e+00 0.000000e+00
1
Step 184000
Ar 1.025475e+00 0.000000e+00 0.000000e+00
1
Step 185000
Ar 1.023233e+00 0.000000e+00 0.000000e+00
1
Step 186000
Ar 9.294838e-01 0.000000e+00 0.000000e+00
1
Step 187000
Ar 1.001234e+00 0.000000e+00 0.000000e+00
1
Step 188000
Ar 9.039726e-01 0.000000e+00 0.000000e+00
1
Step 189000
Ar 9.043313e-01 0.000000e+00 0.000000e+00
1
Step 190000
Ar 9.030626e-01 0.000000e+00 0.000000e+00
1
Step 191000
Ar 9.391895e-01 0.000000e+00 0.000000e+00
1
Step 192000
Ar 1.085705e+00 0.000000e+00 0.000000e+00
1
Step 193000
Ar 1.084286e+00 0.000000e+00 0.000000e+00
1
Step 194000
Ar 1.085379e+00 0.000000e+00 0.000000e+00
1
Step 195000
Ar 1.078160e+00 0.000000e+00 0.000000e+00
1
Step 196000
Ar 8.350852e-01 0.000000e+00 0.000000e+00
1
Step 197000
Ar 9.431973e-01 0.000000e+00 0.000000e+00
1
Step 198000
Ar 8.709678e-01 0.000000e+00 0.000000e+00
1
Step 199000
Ar 1.166023e+00 0.000000e+00 0.000000e+00
1
Step 200000
Ar 1.026575e+00 0.000000e+00 0.000000e+00
1
Step 201000
Ar 8.759753e-01 0.000000e+00 0.000000e+00
1
Step 202000
Ar 1.085790e+00 0.000000e+00 0.000000e+00
1
Step 203000
Ar 1.087660e+00 0.000000e+00 0.000000e+00
1
Step 204000
Ar 1.098447e+00 0.000000e+00 0.000000e+00
1
Step 205000
Ar 1.096058e+00 0.000000e+00 0.000000e+00
1
Step 206000
Ar 1.111991e+00 0.000000e+00 0.000000e+00
1
Step 207000
Ar 1.102192e+00 0.000000e+00 0.000000e+00
1
Step 208000
Ar 9.047655e-01 0.000000e+00 0.000000e+00
1
Step 209000
Ar 8.965196e-01 0.000000e+00 0.000000e+00
1
Step 210000
Ar 8.980456e-01 0.000000e+00 0.000000e+00
1
Step 211000
Ar 8.920190e-01 0.000000e+00 0.000000e+00
1
Step 212000
Ar 8.984350e-01 0.000000e+00 0.000000e+00
1
Step 213000
Ar 8.997062e-01 0.000000e+00 0.000000e+00
1
Step 214000
Ar 8.950839e-01 0.000000e+00 0.000000e+00
1
Step 215000
Ar 8.965940e-01 0.000000e+00 0.000000e+00
1
Step 216000
Ar 8.997429e-01 0.000000e+00 0.000000e+00
1
Step 217000
Ar 8.922755e-01 0.000000e+00 0.000000e+00
1
Step 218000
Ar 9.776936e-01 0.000000e+00 0.000000e+00
1
Step 219000
Ar 1.024575e+00 0.000000e+00 0.000000e+00
1
Step 220000
Ar 1.025976e+00 0.000000e+00 0.000000e+00
1
Step 221000
Ar 1.022061e+00 0.000000e+00 0.000000e+00
1
Step 222000
Ar 1.094520e+00 0.000000e+00 0.000000e+00
1
Step 223000
Ar 1.016765e+00 0.000000e+00 0.000000e+00
1
Step 224000
Ar 8.619811e-01 0.000000e+00 0.000000e+00
1
Step 225000
Ar 1.026184e+00 0.000000e+00 0.000000e+00
1
Step 226000
Ar 9.749018e-01 0.000000e+00 0.000000e+00
1
Step 227000
Ar 1.128914e+00 0.000000e+00 0.000000e+00
1
Step 228000
Ar 1.027333e+00 0.000000e+00 0.000000e+00
1
Step 229000
Ar 1.025940e+00 0.000000e+00 0.000000e+00
1
Step 230000
Ar 1.025593e+00 0.000000e+00 0.000000e+00
1
Step 231000
Ar 1.039442e+00 0.000000e+00 0.000000e+00
1
Step 232000
Ar 1.112840e+00 0.000000e+00 0.000000e+00
1
Step 233000
Ar 8.409855e-01 0.000000e+00 0.000000e+00
1
Step 234000
Ar 1.040270e+00 0.000000e+00 0.000000e+00
1
Step 235000
Ar 8.203977e-01 0.000000e+00 0.000000e+00
1
Step 236000
Ar 9.915031e-01 0.000000e+00 0.000000e+00
1
Step 237000
Ar 9.088891e-01 0.000000e+00 0.000000e+00
1
Step 238000
Ar 1.056223e+00 0.000000e+00 0.000000e+00
1
Step 239000
Ar 8.275608e-01 0.000000e+00 0.000000e+00
1
Step 240000
Ar 9.614770e-01 0.000000e+00 0.000000e+00
1
Step 241000
Ar 8.073884e-01 0.000000e+00 0.000000e+00
1
Step 242000
Ar 9.595792e-01 0.000000e+00 0.000000e+00
1
Step 243000
Ar 8.927291e-01 0.000000e+00 0.000000e+00
1
Step 244000
Ar 7.696432e-01 0.000000e+00 0.000000e+00
1
Step 245000
Ar 1.085913e+00 0.000000e+00 0.000000e+00
1
Step 246000
Ar 9.810008e-01 0.000000e+00 0.000000e+00
1
Step 247000
Ar 1.212508e+00 0.000000e+00 0.000000e+00
1
Step 248000
Ar 9.425097e-01 0.000000e+00 0.000000e+00
1
Step 249000
Ar 1.112569e+00 0.000000e+00 0.000000e+00
1
Step 250000
Ar 1.109939e+00 0.000000e+00 0.000000e+00
1
Step 251000
Ar 9.749303e-01 0.000000e+00 0.000000e+00
1
Step 252000
Ar 9.410871e-01 0.000000e+00 0.000000e+00
1
Step 253000
Ar 1.072738e+00 0.000000e+00 0.000000e+00
1
Step 254000
Ar 8.060267e-01 0.000000e+00 0.000000e+00
1
Step 255000
Ar 1.141409e+00 0.000000e+00 0.000000e+00
1
Step 256000
Ar 1.025322e+00 0.000000e+00 0.000000e+00
1
Step 257000
Ar 9.281857e-01 0.000000e+00 0.000000e+00
1
Step 258000
Ar 9.774562e-01 0.000000e+00 0.000000e+00
1
Step 259000
Ar 1.041471e+00 0.000000e+00 0.000000e+00
1
Step 260000
Ar 7.537618e-01 0.000000e+00 0.000000e+00
1
Step 261000
Ar 1.118515e+00 0.000000e+00 0.000000e+00
1
Step 262000
Ar 1.047677e+00 0.000000e+00 0.000000e+00
1
Step 263000
Ar 8.902495e-01 0.000000e+00 0.000000e+00
1
Step 264000
Ar 9.946386e-01 0.000000e+00 0.000000e+00
1
Step 265000
Ar 7.149073e-01 0.000000e+00 0.000000e+00
1
Step 266000
Ar 9.972440e-01 0.000000e+00 0.000000e+00
1
Step 267000
Ar 1.106870e+00 0.000000e+00 0.000000e+00
1
Step 268000
Ar 1.087903e+00 0.000000e+00 0.000000e+00
1
Step 269000
Ar 8.984637e-01 0.000000e+00 0.000000e+00
1
Step 270000
Ar 1.061669e+00 0.000000e+00 0.000000e+00
1
Step 271000
Ar 1.046727e+00 0.000000e+00 0.000000e+00
1
Step 272000
Ar 7.617599e-01 0.000000e+00 0.000000e+00
1
Step 273000
Ar 8.444656e-01 0.000000e+00 0.000000e+00
1
Step 274000
Ar 6.782259e-01 0.000000e+00 0.000000e+00
1
Step 275000
Ar 9.322768e-01 0.000000e+00 0.000000e+00
1
Step 276000
Ar 9.249687e-01 0.000000e+00 0.000000e+00
1
Step 277000
Ar 9.314495e-01 0.000000e+00 0.000000e+00
1
Step 278000
Ar 1.098213e+00 0.000000e+00 0.000000e+00
1
Step 279000
Ar 7.225675e-01 0.000000e+00 0.000000e+00
1
Step 280000
Ar 1.117842e+00 0.000000e+00 0.000000e+00
1
Step 281000
Ar 8.658650e-01 0.000000e+00 0.000000e+00
1
Step 282000
Ar 8.658757e-01 0.000000e+00 0.000000e+00
1
Step 283000
Ar 1.025808e+00 0.000000e+00 0.000000e+00
1
Step 284000
Ar 9.820692e-01 0.000000e+00 0.000000e+00
1
Step 285000
Ar 1.008868e+00 0.000000e+00 0.000000e+00
1
Step 286000
Ar 8.342550e-01 0.000000e+00 0.000000e+00
1
Step 287000
Ar 1.022244e+00 0.000000e+00 0.000000e+00
1
Step 288000
Ar 1.069504e+00 0.000000e+00 0.000000e+00
1
Step 289000
Ar 9.513236e-01 0.000000e+00 0.000000e+00
1
Step 290000
Ar 9.510014e-01 0.000000e+00 0.000000e+00
1
Step 291000
Ar 8.381051e-01 0.000000e+00 0.000000e+00
1
Step 292000
Ar 9.489245e-01 0.000000e+00 0.000000e+00
1
Step 293000
Ar 9.525123e-01 0.000000e+00 0.000000e+00
1
Step 294000
Ar 9.481891e-01 0.000000e+00 0.000000e+00
1
Step 295000
Ar 9.900205e-01 0.000000e+00 0.000000e+00
1
Step 296000
Ar 9.034546e-01 0.000000e+00 0.000000e+00
1
Step 297000
Ar 9.878162e-01 0.000000e+00 0.000000e+00
1
Step 298000
Ar 1.215202e+00 0.000000e+00 0.000000e+00
1
Step 299000
Ar 9.443010e-01 0.000000e+00 0.000000e+00
1
Step 300000
Ar 1.106737e+00 0.000000e+00 0.000000e+00
1
Step 301000
Ar 1.057261e+00 0.000000e+00 0.000000e+00
1
Step 302000
Ar 8.860181e-01 0.000000e+00 0.000000e+00
1
Step 303000
Ar 9.855414e-01 0.000000e+00 0.000000e+00
1
Step 304000
Ar 8.944420e-01 0.000000e+00 0.000000e+00
1
Step 305000
Ar 8.477762e-01 0.000000e+00 0.000000e+00
1
Step 306000
Ar 8.079846e-01 0.000000e+00 0.000000e+00
1
Step 307000
Ar 1.129175e+00 0.000000e+00 0.000000e+00
1
Step 308000
Ar 9.753628e-01 0.000000e+00 0.000000e+00
1
Step 309000
Ar 7.798210e-01 0.000000e+00 0.000000e+00
1
Step 310000
Ar 8.987456e-01 0.000000e+00 0.000000e+00
1
Step 311000
Ar 1.148833e+00 0.000000e+00 0.000000e+00
1
Step 312000
Ar 1.128958e+00 0.000000e+00 0.000000e+00
1
Step 313000
Ar 1.029225e+00 0.000000e+00 0.000000e+00
1
Step 314000
Ar 1.144248e+00 0.000000e+00 0.000000e+00
1
Step 315000
Ar 1.087022e+00 0.000000e+00 0.000000e+00
1
Step 316000
Ar 1.123948e+00 0.000000e+00 0.000000e+00
1
Step 317000
Ar 8.925503e-01 0.000000e+00 0.000000e+00
1
Step 318000
Ar 8.666493e-01 0.000000e+00 0.000000e+00
1
Step 319000
Ar 8.933603e-01 0.000000e+00 0.000000e+00
1
Step 320000
Ar 5.107052e-01 0.000000e+00 0.000000e+00
1
Step 321000
Ar 1.072999e+00 0.000000e+00 0.000000e+00
1
Step 322000
Ar 1.025080e+00 0.000000e+00 0.000000e+00
1
Step 323000
Ar 9.693686e-01 0.000000e+00 0.000000e+00
1
Step 324000
Ar 1.153176e+00 0.000000e+00 0.000000e+00
1
Step 325000
Ar 1.158525e+00 0.000000e+00 0.000000e+00
1
Step 326000
Ar 7.939830e-01 0.000000e+00 0.000000e+00
1
Step 327000
Ar 1.237424e+00 0.000000e+00 0.000000e+00
1
Step 328000
Ar 1.070125e+00 0.000000e+00 0.000000e+00
1
Step 329000
Ar 8.855532e-01 0.000000e+00 0.000000e+00
1
Step 330000
Ar 8.436596e-01 0.000000e+00 0.000000e+00
1
Step 331000
Ar 8.134259e-01 0.000000e+00 0.000000e+00
1
Step 332000
Ar 9.485006e-01 0.000000e+00 0.000000e+00
1
Step 333000
Ar 1.230789e+00 0.000000e+00 0.000000e+00
1
Step 334000
Ar 1.128618e+00 0.000000e+00 0.000000e+00
1
Step 335000
Ar 1.188458e+00 0.000000e+00 0.000000e+00
1
Step 336000
Ar 8.382650e-01 0.000000e+00 0.000000e+00
1
Step 337000
Ar 8.871689e-01 0.000000e+00 0.000000e+00
1
Step 338000
Ar 8.841366e-01 0.000000e+00 0.000000e+00
1
Step 339000
Ar 8.935878e-01 0.000000e+00 0.000000e+00
1
Step 340000
Ar 8.940171e-01 0.000000e+00 0.000000e+00
1
Step 341000
Ar 8.941475e-01 0.000000e+00 0.000000e+00
1
Step 342000
Ar 8.847353e-01 0.000000e+00 0.000000e+00
1
Step 343000
Ar 8.932895e-01 0.000000e+00 0.000000e+00
1
Step 344000
Ar 8.998481e-01 0.000000e+00 0.000000e+00
1
Step 345000
Ar 8.968134e-01 0.000000e+00 0.000000e+00
1
Step 346000
Ar 8.932199e-01 0.000000e+00 0.000000e+00
1
Step 347000
Ar 8.941199e-01 0.000000e+00 0.000000e+00
1
Step 348000
Ar 7.554273e-01 0.000000e+00 0.000000e+00
1
Step 349000
Ar 7.992010e-01 0.000000e+00 0.000000e+00
1
Step 350000
Ar -9.662065e-01 0.000000e+00 0.000000e+00
1
Step 351000
Ar -1.002680e+00 0.000000e+00 0.000000e+00
1
Step 352000
Ar -9.960930e-01 0.000000e+00 0.000000e+00
1
Step 353000
Ar -9.991354e-01 0.000000e+00 0.000000e+00
1
Step 354000
Ar -9.935325e-01 0.000000e+00 0.000000e+00
1
Step 355000
Ar -1.008866e+00 0.000000e+00 0.000000e+00
1
Step 356000
Ar -1.004538e+00 0.000000e+00 0.000000e+00
1
Step 357000
Ar -1.013441e+00 0.000000e+00 0.000000e+00
1
Step 358000
Ar -1.026025e+00 0.000000e+00 0.000000e+00
1
Step 359000
Ar -1.029293e+00 0.000000e+00 0.000000e+00
1
Step 360000
Ar -1.024130e+00 0.000000e+00 0.000000e+00
1
Step 361000
Ar -1.028848e+00 0.000000e+00 0.000000e+00
1
Step 362000
Ar -1.026570e+00 0.000000e+00 0.000000e+00
1
Step 363000
Ar -1.029874e+00 0.000000e+00 0.000000e+00
1
Step 364000
Ar -1.027139e+00 0.000000e+00 0.000000e+00
1
Step 365000
Ar -1.023919e+00 0.000000e+00 0.000000e+00
1
Step 366000
Ar -1.027947e+00 0.000000e+00 0.000000e+00
1
Step 367000
Ar -1.022552e+00 0.000000e+00 0.000000e+00
1
Step 368000
Ar -1.024118e+00 0.000000e+00 0.000000e+00
1
Step 369000
Ar -1.022066e+00 0.000000e+00 0.000000e+00
1
Step 370000
Ar -1.041299e+00 0.000000e+00 0.000000e+00
1
Step 371000
Ar -9.829610e-01 0.000000e+00 0.000000e+00
1
Step 372000
Ar -1.035711e+00 0.000000e+00 0.000000e+00
1
Step 373000
Ar -1.041357e+00 0.000000e+00 0.000000e+00
1
Step 374000
Ar -1.037692e+00 0.000000e+00 0.000000e+00
1
Step 375000
Ar -1.052948e+00 0.000000e+00 0.000000e+00
1
Step 376000
Ar -1.047470e+00 0.000000e+00 0.000000e+00
1
Step 377000
Ar -1.050445e+00 0.000000e+00 0.000000e+00
1
Step 378000
Ar -1.044034e+00 0.000000e+00 0.000000e+00
1
Step 379000
Ar -1.048281e+00 0.000000e+00 0.000000e+00
1
Step 380000
Ar -1.059074e+00 0.000000e+00 0.000000e+00
1
Step 381000
Ar -1.061309e+00 0.000000e+00 0.000000e+00
1
Step 382000
Ar -1.003161e+00 0.000000e+00 0.000000e+00
1
Step 383000
Ar -1.000362e+00 0.000000e+00 0.000000e+00
1
Step 384000
Ar -1.002755e+00 0.000000e+00 0.000000e+00
1
Step 385000
Ar -9.260187e-01 0.000000e+00 0.000000e+00
1
Step 386000
Ar -1.073435e+00 0.000000e+00 0.000000e+00
1
Step 387000
Ar -9.385228e-01 0.000000e+00 0.000000e+00
1
Step 388000
Ar -9.421734e-01 0.000000e+00 0.000000e+00
1
Step 389000
Ar -9.361718e-01 0.000000e+00 0.000000e+00
1
Step 390000
Ar -9.392918e-01 0.000000e+00 0.000000e+00
1
Step 391000
Ar -9.425711e-01 0.000000e+00 0.000000e+00
1
Step 392000
Ar -1.035824e+00 0.000000e+00 0.000000e+00
1
Step 393000
Ar -9.989091e-01 0.000000e+00 0.000000e+00
1
Step 394000
Ar -9.229254e-01 0.000000e+00 0.000000e+00
1
Step 395000
Ar -1.017655e+00 0.000000e+00 0.000000e+00
1
Step 396000
Ar -9.988641e-01 0.000000e+00 0.000000e+00
1
Step 397000
Ar -9.059664e-01 0.000000e+00 0.000000e+00
1
Step 398000
Ar -1.003220e+00 0.000000e+00 0.000000e+00
1
Step 399000
Ar -1.001385e+00 0.000000e+00 0.000000e+00
1
Step 400000
Ar -1.020217e+00 0.000000e+00 0.000000e+00
1
Step 401000
Ar -9.236925e-01 0.000000e+00 0.000000e+00
1
Step 402000
Ar -9.230327e-01 0.000000e+00 0.000000e+00
1
Step 403000
Ar -9.234420e-01 0.000000e+00 0.000000e+00
1
Step 404000
Ar -1.071202e+00 0.000000e+00 0.000000e+00
1
Step 405000
Ar -1.080863e+00 0.000000e+00 0.000000e+00
1
Step 406000
Ar -1.083370e+00 0.000000e+00 0.000000e+00
1
Step 407000
Ar -1.071255e+00 0.000000e+00 0.000000e+00
1
Step 408000
Ar -9.769588e-01 0.000000e+00 0.000000e+00
1
Step 409000
Ar -9.950933e-01 0.000000e+00 0.000000e+00
1
Step 410000
Ar -1.106811e+00 0.000000e+00 0.000000e+00
1
Step 411000
Ar -9.120798e-01 0.000000e+00 0.000000e+00
1
Step 412000
Ar -9.079060e-01 0.000000e+00 0.000000e+00
1
Step 413000
Ar -9.114983e-01 0.000000e+00 0.000000e+00
1
Step 414000
Ar -9.117098e-01 0.000000e+00 0.000000e+00
1
Step 415000
Ar -9.102087e-01 0.000000e+00 0.000000e+00
1
Step 416000
Ar -9.143799e-01 0.000000e+00 0.000000e+00
1
Step 417000
Ar -9.121071e-01 0.000000e+00 0.000000e+00
1
Step 418000
Ar -9.099679e-01 0.000000e+00 0.000000e+00
1
Step 419000
Ar -9.119577e-01 0.000000e+00 0.000000e+00
1
Step 420000
Ar -9.255966e-01 0.000000e+00 0.000000e+00
1
Step 421000
Ar -1.019929e+00 0.000000e+00 0.000000e+00
1
Step 422000
Ar -1.032800e+00 0.000000e+00 0.000000e+00
1
Step 423000
Ar -1.076245e+00 0.000000e+00 0.000000e+00
1
Step 424000
Ar -9.147880e-01 0.000000e+00 0.000000e+00
1
Step 425000
Ar -9.625463e-01 0.000000e+00 0.000000e+00
1
Step 426000
Ar -1.002951e+00 0.000000e+00 0.000000e+00
1
Step 427000
Ar -9.728612e-01 0.000000e+00 0.000000e+00
1
Step 428000
Ar -9.240347e-01 0.000000e+00 0.000000e+00
1
Step 429000
Ar -1.176935e+00 0.000000e+00 0.000000e+00
1
Step 430000
Ar -1.087668e+00 0.000000e+00 0.000000e+00
1
Step 431000
Ar -1.089130e+00 0.000000e+00 0.000000e+00
1
Step 432000
Ar -1.005506e+00 0.000000e+00 0.000000e+00
1
Step 433000
Ar -1.075673e+00 0.000000e+00 0.000000e+00
1
Step 434000
Ar -9.499691e-01 0.000000e+00 0.000000e+00
1
Step 435000
Ar -9.999568e-01 0.000000e+00 0.000000e+00
1
Step 436000
Ar -9.296218e-01 0.000000e+00 0.000000e+00
1
Step 437000
Ar -1.014694e+00 0.000000e+00 0.000000e+00
1
Step 438000
Ar -1.105676e+00 0.000000e+00 0.000000e+00
1
Step 439000
Ar -7.893539e-01 0.000000e+00 0.000000e+00
1
Step 440000
Ar -9.850255e-01 0.000000e+00 0.000000e+00
1
Step 441000
Ar -1.021830e+00 0.000000e+00 0.000000e+00
1
Step 442000
Ar -9.753340e-01 0.000000e+00 0.000000e+00
1
Step 443000
Ar -9.141551e-01 0.000000e+00 0.000000e+00
1
Step 444000
Ar -9.115702e-01 0.000000e+00 0.000000e+00
1
Step 445000
Ar -9.130556e-01 0.000000e+00 0.000000e+00
1
Step 446000
Ar -9.141098e-01 0.000000e+00 0.000000e+00
1
Step 447000
Ar -1.091234e+00 0.000000e+00 0.000000e+00
1
Step 448000
Ar -1.092323e+00 0.000000e+00 0.000000e+00
1
Step 449000
Ar -1.090706e+00 0.000000e+00 0.000000e+00
1
Step 450000
Ar -1.101922e+00 0.000000e+00 0.000000e+00
1
Step 451000
Ar -1.099290e+00 0.000000e+00 0.000000e+00
1
Step 452000
Ar -8.345980e-01 0.000000e+00 0.000000e+00
1
Step 453000
Ar -9.609136e-01 0.000000e+00 0.000000e+00
1
Step 454000
Ar -9.937524e-01 0.000000e+00 0.000000e+00
1
Step 455000
Ar -1.043299e+00 0.000000e+00 0.000000e+00
1
Step 456000
Ar -8.977180e-01 0.000000e+00 0.000000e+00
1
Step 457000
Ar -9.023147e-01 0.000000e+00 0.000000e+00
1
Step 458000
Ar -1.044725e+00 0.000000e+00 0.000000e+00
1
Step 459000
Ar -9.726622e-01 0.000000e+00 0.000000e+00
1
Step 460000
Ar -1.017664e+00 0.000000e+00 0.000000e+00
1
Step 461000
Ar -9.937824e-01 0.000000e+00 0.000000e+00
1
Step 462000
Ar -1.026158e+00 0.000000e+00 0.000000e+00
1
Step 463000
Ar -1.029777e+00 0.000000e+00 0.000000e+00
1
Step 464000
Ar -9.615208e-01 0.000000e+00 0.000000e+00
1
Step 465000
Ar -9.691664e-01 0.000000e+00 0.000000e+00
1
Step 466000
Ar -1.033271e+00 0.000000e+00 0.000000e+00
1
Step 467000
Ar -1.033178e+00 0.000000e+00 0.000000e+00
1
Step 468000
Ar -9.851371e-01 0.000000e+00 0.000000e+00
1
Step 469000
Ar -1.042322e+00 0.000000e+00 0.000000e+00
1
Step 470000
Ar -9.016271e-01 0.000000e+00 0.000000e+00
1
Step 471000
Ar -1.046104e+00 0.000000e+00 0.000000e+00
1
Step 472000
Ar -8.168938e-01 0.000000e+00 0.000000e+00
1
Step 473000
Ar -9.602122e-01 0.000000e+00 0.000000e+00
1
Step 474000
Ar -1.035143e+00 0.000000e+00 0.000000e+00
1
Step 475000
Ar -9.628652e-01 0.000000e+00 0.000000e+00
1
Step 476000
Ar -1.027461e+00 0.000000e+00 0.000000e+00
1
Step 477000
Ar -1.048494e+00 0.000000e+00 0.000000e+00
1
Step 478000
Ar -9.619286e-01 0.000000e+00 0.000000e+00
1
Step 479000
Ar -1.103799e+00 0.000000e+00 0.000000e+00
1
Step 480000
Ar -1.102858e+00 0.000000e+00 0.000000e+00
1
Step 481000
Ar -8.904960e-01 0.000000e+00 0.000000e+00
1
Step 482000
Ar -9.867095e-01 0.000000e+00 0.000000e+00
1
Step 483000
Ar -9.382009e-01 0.000000e+00 0.000000e+00
1
Step 484000
Ar -9.871716e-01 0.000000e+00 0.000000e+00
1
Step 485000
Ar -9.231505e-01 0.000000e+00 0.000000e+00
1
Step 486000
Ar -1.072111e+00 0.000000e+00 0.000000e+00
1
Step 487000
Ar -1.087483e+00 0.000000e+00 0.000000e+00
1
Step 488000
Ar -1.095133e+00 0.000000e+00 0.000000e+00
1
Step 489000
Ar -1.086928e+00 0.000000e+00 0.000000e+00
1
Step 490000
Ar -1.194892e+00 0.000000e+00 0.000000e+00
1
Step 491000
Ar -9.682121e-01 0.000000e+00 0.000000e+00
1
Step 492000
Ar -8.798187e-01 0.000000e+00 0.000000e+00
1
Step 493000
Ar -8.841385e-01 0.000000e+00 0.000000e+00
1
Step 494000
Ar -8.793649e-01 0.000000e+00 0.000000e+00
1
Step 495000
Ar -8.782004e-01 0.000000e+00 0.000000e+00
1
Step 496000
Ar -8.813210e-01 0.000000e+00 0.000000e+00
1
Step 497000
Ar -8.803866e-01 0.000000e+00 0.000000e+00
1
Step 498000
Ar -9.974472e-01 0.000000e+00 0.000000e+00
1
Step 499000
Ar -8.847490e-01 0.000000e+00 0.000000e+00
1
Step 500000
Ar -1.096990e+00 0.000000e+00 0.000000e+00
1
Step 501000
Ar -6.864606e-01 0.000000e+00 0.000000e+00
1
Step 502000
Ar -1.016919e+00 0.000000e+00 0.000000e+00
1
Step 503000
Ar -1.106001e+00 0.000000e+00 0.000000e+00
1
Step 504000
Ar -1.109179e+00 0.000000e+00 0.000000e+00
1
Step 505000
Ar -1.105874e+00 0.000000e+00 0.000000e+00
1
Step 506000
Ar -1.106579e+00 0.000000e+00 0.000000e+00
1
Step 507000
Ar -1.102555e+00 0.000000e+00 0.000000e+00
1
Step 508000
Ar -1.106193e+00 0.000000e+00 0.000000e+00
1
Step 509000
Ar -9.045654e-01 0.000000e+00 0.000000e+00
1
Step 510000
Ar -8.710583e-01 0.000000e+00 0.000000e+00
1
Step 511000
Ar -8.658366e-01 0.000000e+00 0.000000e+00
1
Step 512000
Ar -8.684548e-01 0.000000e+00 0.000000e+00
1
Step 513000
Ar -8.553763e-01 0.000000e+00 0.000000e+00
1
Step 514000
Ar -8.765923e-01 0.000000e+00 0.000000e+00
1
Step 515000
Ar -1.098429e+00 0.000000e+00 0.000000e+00
1
Step 516000
Ar -1.108111e+00 0.000000e+00 0.000000e+00
1
Step 517000
Ar -1.104477e+00 0.000000e+00 0.000000e+00
1
Step 518000
Ar -1.102901e+00 0.000000e+00 0.000000e+00
1
Step 519000
Ar -1.106726e+00 0.000000e+00 0.000000e+00
1
Step 520000
Ar -1.103502e+00 0.000000e+00 0.000000e+00
1
Step 521000
Ar -1.108879e+00 0.000000e+00 0.000000e+00
1
Step 522000
Ar -1.113190e+00 0.000000e+00 0.000000e+00
1
Step 523000
Ar -9.415583e-01 0.000000e+00 0.000000e+00
1
Step 524000
Ar -1.053905e+00 0.000000e+00 0.000000e+00
1
Step 525000
Ar -9.821760e-01 0.000000e+00 0.000000e+00
1
Step 526000
Ar -7.024221e-01 0.000000e+00 0.000000e+00
1
Step 527000
Ar -1.123654e+00 0.000000e+00 0.000000e+00
1
Step 528000
Ar -9.894390e-01 0.000000e+00 0.000000e+00
1
Step 529000
Ar -1.024235e+00 0.000000e+00 0.000000e+00
1
Step 530000
Ar -1.104515e+00 0.000000e+00 0.000000e+00
1
Step 531000
Ar -1.077140e+00 0.000000e+00 0.000000e+00
1
Step 532000
Ar -8.210760e-01 0.000000e+00 0.000000e+00
1
Step 533000
Ar -7.782398e-01 0.000000e+00 0.000000e+00
1
Step 534000
Ar -1.102777e+00 0.000000e+00 0.000000e+00
1
Step 535000
Ar -8.404120e-01 0.000000e+00 0.000000e+00
1
Step 536000
Ar -1.079464e+00 0.000000e+00 0.000000e+00
1
Step 537000
Ar -1.079348e+00 0.000000e+00 0.000000e+00
1
Step 538000
Ar -9.579747e-01 0.000000e+00 0.000000e+00
1
Step 539000
Ar -1.070417e+00 0.000000e+00 0.000000e+00
1
Step 540000
Ar -1.026054e+00 0.000000e+00 0.000000e+00
1
Step 541000
Ar -1.023072e+00 0.000000e+00 0.000000e+00
1
Step 542000
Ar -1.097685e+00 0.000000e+00 0.000000e+00
1
Step 543000
Ar -1.091219e+00 0.000000e+00 0.000000e+00
1
Step 544000
Ar -8.648064e-01 0.000000e+00 0.000000e+00
1
Step 545000
Ar -1.121040e+00 0.000000e+00 0.000000e+00
1
Step 546000
Ar -1.133424e+00 0.000000e+00 0.000000e+00
1
Step 547000
Ar -1.131985e+00 0.000000e+00 0.000000e+00
1
Step 548000
Ar -1.072509e+00 0.000000e+00 0.000000e+00
1
Step 549000
Ar -1.047905e+00 0.000000e+00 0.000000e+00
1
Step 550000
Ar -9.992589e-01 0.000000e+00 0.000000e+00
1
Step 551000
Ar -9.492596e-01 0.000000e+00 0.000000e+00
1
Step 552000
Ar -7.642605e-01 0.000000e+00 0.000000e+00
1
Step 553000
Ar -1.126796e+00 0.000000e+00 0.000000e+00
1
Step 554000
Ar -1.133442e+00 0.000000e+00 0.000000e+00
1
Step 555000
Ar -1.132871e+00 0.000000e+00 0.000000e+00
1
Step 556000
Ar -1.131349e+00 0.000000e+00 0.000000e+00
1
Step 557000
Ar -1.140561e+00 0.000000e+00 0.000000e+00
1
Step 558000
Ar -1.129751e+00 0.000000e+00 0.000000e+00
1
Step 559000
Ar -1.131622e+00 0.000000e+00 0.000000e+00
1
Step 560000
Ar -1.087241e+00 0.000000e+00 0.000000e+00
1
Step 561000
Ar -8.795445e-01 0.000000e+00 0.000000e+00
1
Step 562000
Ar -8.578046e-01 0.000000e+00 0.000000e+00
1
Step 563000
Ar -9.489761e-01 0.000000e+00 0.000000e+00
1
Step 564000
Ar -1.072997e+00 0.000000e+00 0.000000e+00
1
Step 565000
Ar -1.090563e+00 0.000000e+00 0.000000e+00
1
Step 566000
Ar -1.094734e+00 0.000000e+00 0.000000e+00
1
Step 567000
Ar -1.079012e+00 0.000000e+00 0.000000e+00
1
Step 568000
Ar -1.099039e+00 0.000000e+00 0.000000e+00
1
Step 569000
Ar -9.991105e-01 0.000000e+00 0.000000e+00
1
Step 570000
Ar -4.058673e-01 0.000000e+00 0.000000e+00
1
Step 571000
Ar -9.831461e-01 0.000000e+00 0.000000e+00
1
Step 572000
Ar -8.508805e-01 0.000000e+00 0.000000e+00
1
Step 573000
Ar -8.566318e-01 0.000000e+00 0.000000e+00
1
Step 574000
Ar -9.598728e-01 0.000000e+00 0.000000e+00
1
Step 575000
Ar -8.658705e-01 0.000000e+00 0.000000e+00
1
Step 576000
Ar -9.299585e-01 0.000000e+00 0.000000e+00
1
Step 577000
Ar -8.435001e-01 0.000000e+00 0.000000e+00
1
Step 578000
Ar -1.248031e+00 0.000000e+00 0.000000e+00
1
Step 579000
Ar -1.109211e+00 0.000000e+00 0.000000e+00
1
Step 580000
Ar -6.460717e-01 0.000000e+00 0.000000e+00
1
Step 581000
Ar -1.092485e+00 0.000000e+00 0.000000e+00
1
Step 582000
Ar -1.036383e+00 0.000000e+00 0.000000e+00
1
Step 583000
Ar -9.653189e-01 0.000000e+00 0.000000e+00
1
Step 584000
Ar -8.113291e-01 0.000000e+00 0.000000e+00
1
Step 585000
Ar -7.595402e-01 0.000000e+00 0.000000e+00
1
Step 586000
Ar -9.710941e-01 0.000000e+00 0.000000e+00
1
Step 587000
Ar -9.923923e-01 0.000000e+00 0.000000e+00
1
Step 588000
Ar -1.159748e+00 0.000000e+00 0.000000e+00
1
Step 589000
Ar -1.068582e+00 0.000000e+00 0.000000e+00
1
Step 590000
Ar -1.010823e+00 0.000000e+00 0.000000e+00
1
Step 591000
Ar -1.038691e+00 0.000000e+00 0.000000e+00
1
Step 592000
Ar -1.213025e+00 0.000000e+00 0.000000e+00
1
Step 593000
Ar -8.109911e-01 0.000000e+00 0.000000e+00
1
Step 594000
Ar -9.855099e-01 0.000000e+00 0.000000e+00
1
Step 595000
Ar -9.485444e-01 0.000000e+00 0.000000e+00
1
Step 596000
Ar -8.659738e-01 0.000000e+00 0.000000e+00
1
Step 597000
Ar -1.253495e+00 0.000000e+00 0.000000e+00
1
Step 598000
Ar -1.103149e+00 0.000000e+00 0.000000e+00
1
Step 599000
Ar -1.073262e+00 0.000000e+00 0.000000e+00
1
Step 600000
Ar -9.477233e-01 0.000000e+00 0.000000e+00
1
Step 601000
Ar -1.140159e+00 0.000000e+00 0.000000e+00
1
Step 602000
Ar -7.081390e-01 0.000000e+00 0.000000e+00
1
Step 603000
Ar -1.051973e+00 0.000000e+00 0.000000e+00
1
Step 604000
Ar -5.739237e-01 0.000000e+00 0.000000e+00
1
Step 605000
Ar -1.163513e+00 0.000000e+00 0.000000e+00
1
Step 606000
Ar -1.075901e+00 0.000000e+00 0.000000e+00
1
Step 607000
Ar -1.004540e+00 0.000000e+00 0.000000e+00
1
Step 608000
Ar -1.102488e+00 0.000000e+00 0.000000e+00
1
Step 609000
Ar -1.011436e+00 0.000000e+00 0.000000e+00
1
Step 610000
Ar -9.441158e-01 0.000000e+00 0.000000e+00
1
Step 611000
Ar -7.282329e-01 0.000000e+00 0.000000e+00
1
Step 612000
Ar -1.082119e+00 0.000000e+00 0.000000e+00
1
Step 613000
Ar -5.813851e-01 0.000000e+00 0.000000e+00
1
Step 614000
Ar -8.829343e-01 0.000000e+00 0.000000e+00
1
Step 615000
Ar -8.214957e-01 0.000000e+00 0.000000e+00
1
Step 616000
Ar -8.049056e-01 0.000000e+00 0.000000e+00
1
Step 617000
Ar -6.852757e-01 0.000000e+00 0.000000e+00
1
Step 618000
Ar -9.850123e-01 0.000000e+00 0.000000e+00
1
Step 619000
Ar -1.255190e+00 0.000000e+00 0.000000e+00
1
Step 620000
Ar -7.188366e-01 0.000000e+00 0.000000e+00
1
Step 621000
Ar -8.738077e-01 0.000000e+00 0.000000e+00
1
Step 622000
Ar -1.059271e+00 0.000000e+00 0.000000e+00
1
Step 623000
Ar -1.034240e+00 0.000000e+00 0.000000e+00
1
Step 624000
Ar -5.514975e-01 0.000000e+00 0.000000e+00
1
Step 625000
Ar -6.133418e-01 0.000000e+00 0.000000e+00
1
Step 626000
Ar -9.848114e-01 0.000000e+00 0.000000e+00
1
Step 627000
Ar -1.102470e+00 0.000000e+00 0.000000e+00
1
Step 628000
Ar -1.217985e+00 0.000000e+00 0.000000e+00
1
Step 629000
Ar -1.043759e+00 0.000000e+00 0.000000e+00
1
Step 630000
Ar -1.008131e+00 0.000000e+00 0.000000e+00
1
Step 631000
Ar -9.152745e-01 0.000000e+00 0.000000e+00
1
Step 632000
Ar -9.185986e-01 0.000000e+00 0.000000e+00
1
Step 633000
Ar -9.737161e-01 0.000000e+00 0.000000e+00
1
Step 634000
Ar -9.337167e-01 0.000000e+00 0.000000e+00
1
Step 635000
Ar -9.594385e-01 0.000000e+00 0.000000e+00
1
Step 636000
Ar -8.469337e-01 0.000000e+00 0.000000e+00
1
Step 637000
Ar -9.756555e-01 0.000000e+00 0.000000e+00
1
Step 638000
Ar -8.456823e-01 0.000000e+00 0.000000e+00
1
Step 639000
Ar -6.830981e-01 0.000000e+00 0.000000e+00
1
Step 640000
Ar -9.690400e-01 0.000000e+00 0.000000e+00
1
Step 641000
Ar -9.159821e-01 0.000000e+00 0.000000e+00
1
Step 642000
Ar -9.852718e-01 0.000000e+00 0.000000e+00
1
Step 643000
Ar -1.117490e+00 0.000000e+00 0.000000e+00
1
Step 644000
Ar -9.999105e-01 0.000000e+00 0.000000e+00
1
Step 645000
Ar -1.078600e+00 0.000000e+00 0.000000e+00
1
Step 646000
Ar -9.717518e-01 0.000000e+00 0.000000e+00
1
Step 647000
Ar -9.197892e-01 0.000000e+00 0.000000e+00
1
Step 648000
Ar -8.800189e-01 0.000000e+00 0.000000e+00
1
Step 649000
Ar -9.446161e-01 0.000000e+00 0.000000e+00
1
Step 650000