1
Step 120000
Ar 9.721495e-01 0.000000e+00 0.000000e+00
1
Step 121000
Ar 1.012522e+00 0.000000e+00 0.000000e+00
1
Step 122000
Ar 9.814860e-01 0.000000e+00 0.000000e+00
1
Step 123000
Ar 9.910090e-01 0.000000e+00 0.000000e+00
1
Step 124000
Ar 1.004142e+00 0.000000e+00 0.000000e+00
1
Step 125000
Ar 1.018330e+00 0.000000e+00 0.000000e+00
1
Step 126000
Ar 9.750404e-01 0.000000e+00 0.000000e+00
1
Step 127000
Ar 1.000267e+00 0.000000e+00 0.000000e+00
1
Step 128000
Ar 1.006824e+00 0.000000e+00 0.000000e+00
1
Step 129000
Ar 1.033275e+00 0.000000e+00 0.000000e+00
1
Step 130000
Ar 1.032673e+00 0.000000e+00 0.000000e+00
1
Step 131000
Ar 1.029942e+00 0.000000e+00 0.000000e+00
1
Step 132000
Ar 1.028392e+00 0.000000e+00 0.000000e+00
1
Step 133000
Ar 1.006544e+00 0.000000e+00 0.000000e+00
1
Step 134000
Ar 1.008010e+00 0.000000e+00 0.000000e+00
1
Step 135000
Ar 1.055889e+00 0.000000e+00 0.000000e+00
1
Step 136000
Ar 9.619616e-01 0.000000e+00 0.000000e+00
1
Step 137000
Ar 9.612263e-01 0.000000e+00 0.000000e+00
1
Step 138000
Ar 9.489680e-01 0.000000e+00 0.000000e+00
1
Step 139000
Ar 9.468422e-01 0.000000e+00 0.000000e+00
1
Step 140000
Ar 9.526347e-01 0.000000e+00 0.000000e+00
1
Step 141000
Ar 9.531669e-01 0.000000e+00 0.000000e+00
1
Step 142000
Ar 9.545736e-01 0.000000e+00 0.000000e+00
1
Step 143000
Ar 1.048801e+00 0.000000e+00 0.000000e+00
1
Step 144000
Ar 9.612854e-01 0.000000e+00 0.000000e+00
1
Step 145000
Ar 1.061102e+00 0.000000e+00 0.000000e+00
1
Step 146000
Ar 9.291392e-01 0.000000e+00 0.000000e+00
1
Step 147000
Ar 9.673924e-01 0.000000e+00 0.000000e+00
1
Step 148000
Ar 1.011296e+00 0.000000e+00 0.000000e+00
1
Step 149000
Ar 1.061242e+00 0.000000e+00 0.000000e+00
1
Step 150000
Ar 1.058290e+00 0.000000e+00 0.000000e+00
1
Step 151000
Ar 1.065527e+00 0.000000e+00 0.000000e+00
1
Step 152000
Ar 1.065452e+00 0.000000e+00 0.000000e+00
1
Step 153000
Ar 1.061858e+00 0.000000e+00 0.000000e+00
1
Step 154000
Ar 1.063744e+00 0.000000e+00 0.000000e+00
1
Step 155000
Ar 1.076713e+00 0.000000e+00 0.000000e+00
1
Step 156000
Ar 1.076033e+00 0.000000e+00 0.000000e+00
1
Step 157000
Ar 1.077198e+00 0.000000e+00 0.000000e+00
1
Step 158000
Ar 1.075871e+00 0.000000e+00 0.000000e+00
1
Step 159000
Ar 9.825089e-01 0.000000e+00 0.000000e+00
1
Step 160000
Ar 9.457021e-01 0.000000e+00 0.000000e+00
1
Step 161000
Ar 1.026489e+00 0.000000e+00 0.000000e+00
1
Step 162000
Ar 9.235360e-01 0.000000e+00 0.000000e+00
1
Step 163000
Ar 9.286130e-01 0.000000e+00 0.000000e+00
1
Step 164000
Ar 9.286418e-01 0.000000e+00 0.000000e+00
1
Step 165000
Ar 9.287761e-01 0.000000e+00 0.000000e+00
1
Step 166000
Ar 9.251014e-01 0.000000e+00 0.000000e+00
1
Step 167000
Ar 9.293562e-01 0.000000e+00 0.000000e+00
1
Step 168000
Ar 9.236051e-01 0.000000e+00 0.000000e+00
1
Step 169000
Ar 9.132465e-01 0.000000e+00 0.000000e+00
1
Step 170000
Ar 9.193588e-01 0.000000e+00 0.000000e+00
1
Step 171000
Ar 9.137597e-01 0.000000e+00 0.000000e+00
1
Step 172000
Ar 9.156040e-01 0.000000e+00 0.000000e+00
1
Step 173000
Ar 9.195489e-01 0.000000e+00 0.000000e+00
1
Step 174000
Ar 9.127232e-01 0.000000e+00 0.000000e+00
1
Step 175000
Ar 9.844652e-01 0.000000e+00 0.000000e+00
1
Step 176000
Ar 9.091808e-01 0.000000e+00 0.000000e+00
1
Step 177000
Ar 9.058529e-01 0.000000e+00 0.000000e+00
1
Step 178000
Ar 9.103286e-01 0.000000e+00 0.000000e+00
1
Step 179000
Ar 9.082243e-01 0.000000e+00 0.000000e+00
1
Step 180000
Ar 9.082620e-01 0.000000e+00 0.000000e+00
1
Step 181000
Ar 9.083001e-01 0.000000e+00 0.000000e+00
1
Step 182000
Ar 8.911527e-01 0.000000e+00 0.000000e+00
1
Step 183000
Ar 8.947297e-01 0.000000e+00 0.000000e+00
1
Step 184000
Ar 8.900622e-01 0.000000e+00 0.000000e+00
1
Step 185000
Ar 8.942279e-01 0.000000e+00 0.000000e+00
1
Step 186000
Ar 8.934956e-01 0.000000e+00 0.000000e+00
1
Step 187000
Ar 8.818457e-01 0.000000e+00 0.000000e+00
1
Step 188000
Ar 8.937321e-01 0.000000e+00 0.000000e+00
1
Step 189000
Ar 8.875936e-01 0.000000e+00 0.000000e+00
1
Step 190000
Ar 8.867347e-01 0.000000e+00 0.000000e+00
1
Step 191000
Ar 8.851881e-01 0.000000e+00 0.000000e+00
1
Step 192000
Ar 1.010432e+00 0.000000e+00 0.000000e+00
1
Step 193000
Ar 1.070137e+00 0.000000e+00 0.000000e+00
1
Step 194000
Ar 1.078474e+00 0.000000e+00 0.000000e+00
1
Step 195000
Ar 1.083812e+00 0.000000e+00 0.000000e+00
1
Step 196000
Ar 1.083124e+00 0.000000e+00 0.000000e+00
1
Step 197000
Ar 1.081871e+00 0.000000e+00 0.000000e+00
1
Step 198000
Ar 1.087253e+00 0.000000e+00 0.000000e+00
1
Step 199000
Ar 1.084326e+00 0.000000e+00 0.000000e+00
1
Step 200000
Ar 1.083737e+00 0.000000e+00 0.000000e+00
1
Step 201000
Ar 1.082421e+00 0.000000e+00 0.000000e+00
1
Step 202000
Ar 1.079325e+00 0.000000e+00 0.000000e+00
1
Step 203000
Ar 1.085345e+00 0.000000e+00 0.000000e+00
1
Step 204000
Ar 9.918904e-01 0.000000e+00 0.000000e+00
1
Step 205000
Ar 1.024596e+00 0.000000e+00 0.000000e+00
1
Step 206000
Ar 9.969816e-01 0.000000e+00 0.000000e+00
1
Step 207000
Ar 1.022871e+00 0.000000e+00 0.000000e+00
1
Step 208000
Ar 1.090588e+00 0.000000e+00 0.000000e+00
1
Step 209000
Ar 1.090411e+00 0.000000e+00 0.000000e+00
1
Step 210000
Ar 1.091077e+00 0.000000e+00 0.000000e+00
1
Step 211000
Ar 1.050829e+00 0.000000e+00 0.000000e+00
1
Step 212000
Ar 1.005072e+00 0.000000e+00 0.000000e+00
1
Step 213000
Ar 1.022571e+00 0.000000e+00 0.000000e+00
1
Step 214000
Ar 1.087164e+00 0.000000e+00 0.000000e+00
1
Step 215000
Ar 1.019011e+00 0.000000e+00 0.000000e+00
1
Step 216000
Ar 1.121443e+00 0.000000e+00 0.000000e+00
1
Step 217000
Ar 1.065509e+00 0.000000e+00 0.000000e+00
1
Step 218000
Ar 1.017316e+00 0.000000e+00 0.000000e+00
1
Step 219000
Ar 1.017333e+00 0.000000e+00 0.000000e+00
1
Step 220000
Ar 1.016410e+00 0.000000e+00 0.000000e+00
1
Step 221000
Ar 1.008420e+00 0.000000e+00 0.000000e+00
1
Step 222000
Ar 1.013468e+00 0.000000e+00 0.000000e+00
1
Step 223000
Ar 1.013191e+00 0.000000e+00 0.000000e+00
1
Step 224000
Ar 1.016850e+00 0.000000e+00 0.000000e+00
1
Step 225000
Ar 1.008493e+00 0.000000e+00 0.000000e+00
1
Step 226000
Ar 1.016071e+00 0.000000e+00 0.000000e+00
1
Step 227000
Ar 1.040690e+00 0.000000e+00 0.000000e+00
1
Step 228000
Ar 1.046842e+00 0.000000e+00 0.000000e+00
1
Step 229000
Ar 1.047432e+00 0.000000e+00 0.000000e+00
1
Step 230000
Ar 1.043523e+00 0.000000e+00 0.000000e+00
1
Step 231000
Ar 1.043788e+00 0.000000e+00 0.000000e+00
1
Step 232000
Ar 1.046010e+00 0.000000e+00 0.000000e+00
1
Step 233000
Ar 1.042708e+00 0.000000e+00 0.000000e+00
1
Step 234000
Ar 1.045176e+00 0.000000e+00 0.000000e+00
1
Step 235000
Ar 1.021841e+00 0.000000e+00 0.000000e+00
1
Step 236000
Ar 1.101019e+00 0.000000e+00 0.000000e+00
1
Step 237000
Ar 9.805355e-01 0.000000e+00 0.000000e+00
1
Step 238000
Ar 9.750562e-01 0.000000e+00 0.000000e+00
1
Step 239000
Ar 9.745040e-01 0.000000e+00 0.000000e+00
1
Step 240000
Ar 1.055226e+00 0.000000e+00 0.000000e+00
1
Step 241000
Ar 1.102560e+00 0.000000e+00 0.000000e+00
1
Step 242000
Ar 1.104396e+00 0.000000e+00 0.000000e+00
1
Step 243000
Ar 9.911272e-01 0.000000e+00 0.000000e+00
1
Step 244000
Ar 8.755636e-01 0.000000e+00 0.000000e+00
1
Step 245000
Ar 8.765858e-01 0.000000e+00 0.000000e+00
1
Step 246000
Ar 9.978359e-01 0.000000e+00 0.000000e+00
1
Step 247000
Ar 6.850949e-01 0.000000e+00 0.000000e+00
1
Step 248000
Ar 7.695027e-01 0.000000e+00 0.000000e+00
1
Step 249000
Ar 9.253252e-01 0.000000e+00 0.000000e+00
1
Step 250000
Ar 7.937368e-01 0.000000e+00 0.000000e+00
1
Step 251000
Ar 9.373809e-01 0.000000e+00 0.000000e+00
1
Step 252000
Ar 1.014413e+00 0.000000e+00 0.000000e+00
1
Step 253000
Ar 1.053751e+00 0.000000e+00 0.000000e+00
1
Step 254000
Ar 1.055635e+00 0.000000e+00 0.000000e+00
1
Step 255000
Ar 1.065497e+00 0.000000e+00 0.000000e+00
1
Step 256000
Ar 9.248673e-01 0.000000e+00 0.000000e+00
1
Step 257000
Ar 1.040646e+00 0.000000e+00 0.000000e+00
1
Step 258000
Ar 1.102056e+00 0.000000e+00 0.000000e+00
1
Step 259000
Ar 9.830274e-01 0.000000e+00 0.000000e+00
1
Step 260000
Ar 1.142153e+00 0.000000e+00 0.000000e+00
1
Step 261000
Ar 1.131057e+00 0.000000e+00 0.000000e+00
1
Step 262000
Ar 1.132657e+00 0.000000e+00 0.000000e+00
1
Step 263000
Ar 1.052418e+00 0.000000e+00 0.000000e+00
1
Step 264000
Ar 1.057041e+00 0.000000e+00 0.000000e+00
1
Step 265000
Ar 1.056672e+00 0.000000e+00 0.000000e+00
1
Step 266000
Ar 1.052462e+00 0.000000e+00 0.000000e+00
1
Step 267000
Ar 9.817603e-01 0.000000e+00 0.000000e+00
1
Step 268000
Ar 1.087064e+00 0.000000e+00 0.000000e+00
1
Step 269000
Ar 8.562125e-01 0.000000e+00 0.000000e+00
1
Step 270000
Ar 9.409304e-01 0.000000e+00 0.000000e+00
1
Step 271000
Ar 9.825801e-01 0.000000e+00 0.000000e+00
1
Step 272000
Ar 1.055494e+00 0.000000e+00 0.000000e+00
1
Step 273000
Ar 1.055459e+00 0.000000e+00 0.000000e+00
1
Step 274000
Ar 1.153492e+00 0.000000e+00 0.000000e+00
1
Step 275000
Ar 1.037040e+00 0.000000e+00 0.000000e+00
1
Step 276000
Ar 8.907718e-01 0.000000e+00 0.000000e+00
1
Step 277000
Ar 9.869807e-01 0.000000e+00 0.000000e+00
1
Step 278000
Ar 9.809258e-01 0.000000e+00 0.000000e+00
1
Step 279000
Ar 9.260651e-01 0.000000e+00 0.000000e+00
1
Step 280000
Ar 1.115294e+00 0.000000e+00 0.000000e+00
1
Step 281000
Ar 9.596863e-01 0.000000e+00 0.000000e+00
1
Step 282000
Ar 8.878905e-01 0.000000e+00 0.000000e+00
1
Step 283000
Ar 8.791131e-01 0.000000e+00 0.000000e+00
1
Step 284000
Ar 8.878381e-01 0.000000e+00 0.000000e+00
1
Step 285000
Ar 8.651280e-01 0.000000e+00 0.000000e+00
1
Step 286000
Ar 8.659370e-01 0.000000e+00 0.000000e+00
1
Step 287000
Ar 8.674439e-01 0.000000e+00 0.000000e+00
1
Step 288000
Ar 8.649955e-01 0.000000e+00 0.000000e+00
1
Step 289000
Ar 8.634342e-01 0.000000e+00 0.000000e+00
1
Step 290000
Ar 7.993186e-01 0.000000e+00 0.000000e+00
1
Step 291000
Ar 1.131439e+00 0.000000e+00 0.000000e+00
1
Step 292000
Ar 9.812716e-01 0.000000e+00 0.000000e+00
1
Step 293000
Ar 1.097094e+00 0.000000e+00 0.000000e+00
1
Step 294000
Ar 9.247707e-01 0.000000e+00 0.000000e+00
1
Step 295000
Ar 1.063559e+00 0.000000e+00 0.000000e+00
1
Step 296000
Ar 1.059909e+00 0.000000e+00 0.000000e+00
1
Step 297000
Ar 9.606592e-01 0.000000e+00 0.000000e+00
1
Step 298000
Ar 9.709439e-01 0.000000e+00 0.000000e+00
1
Step 299000
Ar 9.711599e-01 0.000000e+00 0.000000e+00
1
Step 300000
Ar 1.036843e+00 0.000000e+00 0.000000e+00
1
Step 301000
Ar 9.745498e-01 0.000000e+00 0.000000e+00
1
Step 302000
Ar 9.703876e-01 0.000000e+00 0.000000e+00
1
Step 303000
Ar 9.681201e-01 0.000000e+00 0.000000e+00
1
Step 304000
Ar 9.714310e-01 0.000000e+00 0.000000e+00
1
Step 305000
Ar 9.566229e-01 0.000000e+00 0.000000e+00
1
Step 306000
Ar 9.717119e-01 0.000000e+00 0.000000e+00
1
Step 307000
Ar 1.054216e+00 0.000000e+00 0.000000e+00
1
Step 308000
Ar 9.593712e-01 0.000000e+00 0.000000e+00
1
Step 309000
Ar 9.784876e-01 0.000000e+00 0.000000e+00
1
Step 310000
Ar 9.826402e-01 0.000000e+00 0.000000e+00
1
Step 311000
Ar 9.802758e-01 0.000000e+00 0.000000e+00
1
Step 312000
Ar 9.801933e-01 0.000000e+00 0.000000e+00
1
Step 313000
Ar 8.223840e-01 0.000000e+00 0.000000e+00
1
Step 314000
Ar 8.021451e-01 0.000000e+00 0.000000e+00
1
Step 315000
Ar 1.094617e+00 0.000000e+00 0.000000e+00
1
Step 316000
Ar 9.362980e-01 0.000000e+00 0.000000e+00
1
Step 317000
Ar 7.502988e-01 0.000000e+00 0.000000e+00
1
Step 318000
Ar 9.862816e-01 0.000000e+00 0.000000e+00
1
Step 319000
Ar 9.428710e-01 0.000000e+00 0.000000e+00
1
Step 320000
Ar 9.786821e-01 0.000000e+00 0.000000e+00
1
Step 321000
Ar 9.819548e-01 0.000000e+00 0.000000e+00
1
Step 322000
Ar 9.736230e-01 0.000000e+00 0.000000e+00
1
Step 323000
Ar 8.879953e-01 0.000000e+00 0.000000e+00
1
Step 324000
Ar 8.406712e-01 0.000000e+00 0.000000e+00
1
Step 325000
Ar 8.654000e-01 0.000000e+00 0.000000e+00
1
Step 326000
Ar 1.054527e+00 0.000000e+00 0.000000e+00
1
Step 327000
Ar 9.354501e-01 0.000000e+00 0.000000e+00
1
Step 328000
Ar 1.140756e+00 0.000000e+00 0.000000e+00
1
Step 329000
Ar 9.804493e-01 0.000000e+00 0.000000e+00
1
Step 330000
Ar 9.771030e-01 0.000000e+00 0.000000e+00
1
Step 331000
Ar 9.829189e-01 0.000000e+00 0.000000e+00
1
Step 332000
Ar 9.808289e-01 0.000000e+00 0.000000e+00
1
Step 333000
Ar 9.578261e-01 0.000000e+00 0.000000e+00
1
Step 334000
Ar 9.779661e-01 0.000000e+00 0.000000e+00
1
Step 335000
Ar 1.046573e+00 0.000000e+00 0.000000e+00
1
Step 336000
Ar 9.804109e-01 0.000000e+00 0.000000e+00
1
Step 337000
Ar 9.813304e-01 0.000000e+00 0.000000e+00
1
Step 338000
Ar 9.811356e-01 0.000000e+00 0.000000e+00
1
Step 339000
Ar 9.880749e-01 0.000000e+00 0.000000e+00
1
Step 340000
Ar 9.788194e-01 0.000000e+00 0.000000e+00
1
Step 341000
Ar 9.844985e-01 0.000000e+00 0.000000e+00
1
Step 342000
Ar 9.780046e-01 0.000000e+00 0.000000e+00
1
Step 343000
Ar 9.821254e-01 0.000000e+00 0.000000e+00
1
Step 344000
Ar 1.089644e+00 0.000000e+00 0.000000e+00
1
Step 345000
Ar 9.784525e-01 0.000000e+00 0.000000e+00
1
Step 346000
Ar 8.827127e-01 0.000000e+00 0.000000e+00
1
Step 347000
Ar 1.169220e+00 0.000000e+00 0.000000e+00
1
Step 348000
Ar 1.140034e+00 0.000000e+00 0.000000e+00
1
Step 349000
Ar 1.013259e+00 0.000000e+00 0.000000e+00
1
Step 350000
Ar 8.317816e-01 0.000000e+00 0.000000e+00
1
Step 351000
Ar 1.048220e+00 0.000000e+00 0.000000e+00
1
Step 352000
Ar 1.048127e+00 0.000000e+00 0.000000e+00
1
Step 353000
Ar 1.040043e+00 0.000000e+00 0.000000e+00
1
Step 354000
Ar 8.886412e-01 0.000000e+00 0.000000e+00
1
Step 355000
Ar 8.823187e-01 0.000000e+00 0.000000e+00
1
Step 356000
Ar 8.625537e-01 0.000000e+00 0.000000e+00
1
Step 357000
Ar 8.645489e-01 0.000000e+00 0.000000e+00
1
Step 358000
Ar 8.593460e-01 0.000000e+00 0.000000e+00
1
Step 359000
Ar 8.565257e-01 0.000000e+00 0.000000e+00
1
Step 360000
Ar 8.575726e-01 0.000000e+00 0.000000e+00
1
Step 361000
Ar 8.533718e-01 0.000000e+00 0.000000e+00
1
Step 362000
Ar 8.549007e-01 0.000000e+00 0.000000e+00
1
Step 363000
Ar 8.598123e-01 0.000000e+00 0.000000e+00
1
Step 364000
Ar 1.065407e+00 0.000000e+00 0.000000e+00
1
Step 365000
Ar 9.230427e-01 0.000000e+00 0.000000e+00
1
Step 366000
Ar 1.014739e+00 0.000000e+00 0.000000e+00
1
Step 367000
Ar 9.853833e-01 0.000000e+00 0.000000e+00
1
Step 368000
Ar 9.886070e-01 0.000000e+00 0.000000e+00
1
Step 369000
Ar 8.593602e-01 0.000000e+00 0.000000e+00
1
Step 370000
Ar 8.255495e-01 0.000000e+00 0.000000e+00
1
Step 371000
Ar 1.178882e+00 0.000000e+00 0.000000e+00
1
Step 372000
Ar 1.011236e+00 0.000000e+00 0.000000e+00
1
Step 373000
Ar 1.107335e+00 0.000000e+00 0.000000e+00
1
Step 374000
Ar 9.550703e-01 0.000000e+00 0.000000e+00
1
Step 375000
Ar 8.484268e-01 0.000000e+00 0.000000e+00
1
Step 376000
Ar 9.568016e-01 0.000000e+00 0.000000e+00
1
Step 377000
Ar 9.564173e-01 0.000000e+00 0.000000e+00
1
Step 378000
Ar 7.742082e-01 0.000000e+00 0.000000e+00
1
Step 379000
Ar 8.548043e-01 0.000000e+00 0.000000e+00
1
Step 380000
Ar 8.545283e-01 0.000000e+00 0.000000e+00
1
Step 381000
Ar 8.604921e-01 0.000000e+00 0.000000e+00
1
Step 382000
Ar 9.537236e-01 0.000000e+00 0.000000e+00
1
Step 383000
Ar 9.792840e-01 0.000000e+00 0.000000e+00
1
Step 384000
Ar 1.152801e+00 0.000000e+00 0.000000e+00
1
Step 385000
Ar 1.050039e+00 0.000000e+00 0.000000e+00
1
Step 386000
Ar 1.065183e+00 0.000000e+00 0.000000e+00
1
Step 387000
Ar 1.008427e+00 0.000000e+00 0.000000e+00
1
Step 388000
Ar 1.071681e+00 0.000000e+00 0.000000e+00
1
Step 389000
Ar 9.562700e-01 0.000000e+00 0.000000e+00
1
Step 390000
Ar 9.545022e-01 0.000000e+00 0.000000e+00
1
Step 391000
Ar 7.372144e-01 0.000000e+00 0.000000e+00
1
Step 392000
Ar 1.078518e+00 0.000000e+00 0.000000e+00
1
Step 393000
Ar 1.031751e+00 0.000000e+00 0.000000e+00
1
Step 394000
Ar 1.047840e+00 0.000000e+00 0.000000e+00
1
Step 395000
Ar 1.065993e+00 0.000000e+00 0.000000e+00
1
Step 396000
Ar 1.053185e+00 0.000000e+00 0.000000e+00
1
Step 397000
Ar 1.068666e+00 0.000000e+00 0.000000e+00
1
Step 398000
Ar 1.050943e+00 0.000000e+00 0.000000e+00
1
Step 399000
Ar 1.066623e+00 0.000000e+00 0.000000e+00
1
Step 400000
Ar 1.067155e+00 0.000000e+00 0.000000e+00
1
Step 401000
Ar 1.069827e+00 0.000000e+00 0.000000e+00
1
Step 402000
Ar 1.067175e+00 0.000000e+00 0.000000e+00
1
Step 403000
Ar 1.070470e+00 0.000000e+00 0.000000e+00
1
Step 404000
Ar 1.073963e+00 0.000000e+00 0.000000e+00
1
Step 405000
Ar 1.140856e+00 0.000000e+00 0.000000e+00
1
Step 406000
Ar 9.150098e-01 0.000000e+00 0.000000e+00
1
Step 407000
Ar 1.179464e+00 0.000000e+00 0.000000e+00
1
Step 408000
Ar 1.031264e+00 0.000000e+00 0.000000e+00
1
Step 409000
Ar 9.119097e-01 0.000000e+00 0.000000e+00
1
Step 410000
Ar 8.351158e-01 0.000000e+00 0.000000e+00
1
Step 411000
Ar 9.955694e-01 0.000000e+00 0.000000e+00
1
Step 412000
Ar 1.100672e+00 0.000000e+00 0.000000e+00
1
Step 413000
Ar 8.362732e-01 0.000000e+00 0.000000e+00
1
Step 414000
Ar 9.380894e-01 0.000000e+00 0.000000e+00
1
Step 415000
Ar 8.344335e-01 0.000000e+00 0.000000e+00
1
Step 416000
Ar 8.350989e-01 0.000000e+00 0.000000e+00
1
Step 417000
Ar 8.357933e-01 0.000000e+00 0.000000e+00
1
Step 418000
Ar 8.361424e-01 0.000000e+00 0.000000e+00
1
Step 419000
Ar 8.345776e-01 0.000000e+00 0.000000e+00
1
Step 420000
Ar 8.472901e-01 0.000000e+00 0.000000e+00
1
Step 421000
Ar 9.621779e-01 0.000000e+00 0.000000e+00
1
Step 422000
Ar 8.227984e-01 0.000000e+00 0.000000e+00
1
Step 423000
Ar 8.510246e-01 0.000000e+00 0.000000e+00
1
Step 424000
Ar 8.923018e-01 0.000000e+00 0.000000e+00
1
Step 425000
Ar 1.012863e+00 0.000000e+00 0.000000e+00
1
Step 426000
Ar 1.084866e+00 0.000000e+00 0.000000e+00
1
Step 427000
Ar 1.055030e+00 0.000000e+00 0.000000e+00
1
Step 428000
Ar 1.059828e+00 0.000000e+00 0.000000e+00
1
Step 429000
Ar 1.054967e+00 0.000000e+00 0.000000e+00
1
Step 430000
Ar 1.059928e+00 0.000000e+00 0.000000e+00
1
Step 431000
Ar 1.051169e+00 0.000000e+00 0.000000e+00
1
Step 432000
Ar 1.056081e+00 0.000000e+00 0.000000e+00
1
Step 433000
Ar 1.059584e+00 0.000000e+00 0.000000e+00
1
Step 434000
Ar 9.710468e-01 0.000000e+00 0.000000e+00
1
Step 435000
Ar 9.505465e-01 0.000000e+00 0.000000e+00
1
Step 436000
Ar 1.143060e+00 0.000000e+00 0.000000e+00
1
Step 437000
Ar 1.044830e+00 0.000000e+00 0.000000e+00
1
Step 438000
Ar 6.969159e-01 0.000000e+00 0.000000e+00
1
Step 439000
Ar 8.621218e-01 0.000000e+00 0.000000e+00
1
Step 440000
Ar 7.943232e-01 0.000000e+00 0.000000e+00
1
Step 441000
Ar 1.068664e+00 0.000000e+00 0.000000e+00
1
Step 442000
Ar 9.080761e-01 0.000000e+00 0.000000e+00
1
Step 443000
Ar 9.098688e-01 0.000000e+00 0.000000e+00
1
Step 444000
Ar 7.888530e-01 0.000000e+00 0.000000e+00
1
Step 445000
Ar 9.263578e-01 0.000000e+00 0.000000e+00
1
Step 446000
Ar 1.099484e+00 0.000000e+00 0.000000e+00
1
Step 447000
Ar -9.426274e-01 0.000000e+00 0.000000e+00
1
Step 448000
Ar -1.004500e+00 0.000000e+00 0.000000e+00
1
Step 449000
Ar -1.005021e+00 0.000000e+00 0.000000e+00
1
Step 450000
Ar -1.009032e+00 0.000000e+00 0.000000e+00
1
Step 451000
Ar -1.007774e+00 0.000000e+00 0.000000e+00
1
Step 452000
Ar -1.002399e+00 0.000000e+00 0.000000e+00
1
Step 453000
Ar -1.034634e+00 0.000000e+00 0.000000e+00
1
Step 454000
Ar -9.759896e-01 0.000000e+00 0.000000e+00
1
Step 455000
Ar -9.774164e-01 0.000000e+00 0.000000e+00
1
Step 456000
Ar -9.618517e-01 0.000000e+00 0.000000e+00
1
Step 457000
Ar -9.743041e-01 0.000000e+00 0.000000e+00
1
Step 458000
Ar -9.716069e-01 0.000000e+00 0.000000e+00
1
Step 459000
Ar -9.609830e-01 0.000000e+00 0.000000e+00
1
Step 460000
Ar -9.563790e-01 0.000000e+00 0.000000e+00
1
Step 461000
Ar -9.530984e-01 0.000000e+00 0.000000e+00
1
Step 462000
Ar -9.549275e-01 0.000000e+00 0.000000e+00
1
Step 463000
Ar -9.554938e-01 0.000000e+00 0.000000e+00
1
Step 464000
Ar -9.529160e-01 0.000000e+00 0.000000e+00
1
Step 465000
Ar -1.001174e+00 0.000000e+00 0.000000e+00
1
Step 466000
Ar -1.028082e+00 0.000000e+00 0.000000e+00
1
Step 467000
Ar -9.369170e-01 0.000000e+00 0.000000e+00
1
Step 468000
Ar -9.404370e-01 0.000000e+00 0.000000e+00
1
Step 469000
Ar -9.602142e-01 0.000000e+00 0.000000e+00
1
Step 470000
Ar -9.579697e-01 0.000000e+00 0.000000e+00
1
Step 471000
Ar -9.599989e-01 0.000000e+00 0.000000e+00
1
Step 472000
Ar -9.608022e-01 0.000000e+00 0.000000e+00
1
Step 473000
Ar -9.642632e-01 0.000000e+00 0.000000e+00
1
Step 474000
Ar -9.621566e-01 0.000000e+00 0.000000e+00
1
Step 475000
Ar -9.655594e-01 0.000000e+00 0.000000e+00
1
Step 476000
Ar -9.645336e-01 0.000000e+00 0.000000e+00
1
Step 477000
Ar -9.990164e-01 0.000000e+00 0.000000e+00
1
Step 478000
Ar -1.002530e+00 0.000000e+00 0.000000e+00
1
Step 479000
Ar -1.025981e+00 0.000000e+00 0.000000e+00
1
Step 480000
Ar -9.277491e-01 0.000000e+00 0.000000e+00
1
Step 481000
Ar -9.273320e-01 0.000000e+00 0.000000e+00
1
Step 482000
Ar -9.975543e-01 0.000000e+00 0.000000e+00
1
Step 483000
Ar -1.045583e+00 0.000000e+00 0.000000e+00
1
Step 484000
Ar -1.044766e+00 0.000000e+00 0.000000e+00
1
Step 485000
Ar -1.048712e+00 0.000000e+00 0.000000e+00
1
Step 486000
Ar -1.045526e+00 0.000000e+00 0.000000e+00
1
Step 487000
Ar -1.044500e+00 0.000000e+00 0.000000e+00
1
Step 488000
Ar -1.041748e+00 0.000000e+00 0.000000e+00
1
Step 489000
Ar -1.040805e+00 0.000000e+00 0.000000e+00
1
Step 490000
Ar -1.012199e+00 0.000000e+00 0.000000e+00
1
Step 491000
Ar -1.058636e+00 0.000000e+00 0.000000e+00
1
Step 492000
Ar -1.060958e+00 0.000000e+00 0.000000e+00
1
Step 493000
Ar -1.076005e+00 0.000000e+00 0.000000e+00
1
Step 494000
Ar -8.856182e-01 0.000000e+00 0.000000e+00
1
Step 495000
Ar -8.882541e-01 0.000000e+00 0.000000e+00
1
Step 496000
Ar -8.811351e-01 0.000000e+00 0.000000e+00
1
Step 497000
Ar -8.787615e-01 0.000000e+00 0.000000e+00
1
Step 498000
Ar -8.844559e-01 0.000000e+00 0.000000e+00
1
Step 499000
Ar -8.766466e-01 0.000000e+00 0.000000e+00
1
Step 500000
Ar -8.786351e-01 0.000000e+00 0.000000e+00
1
Step 501000
Ar -9.760585e-01 0.000000e+00 0.000000e+00
1
Step 502000
Ar -1.062844e+00 0.000000e+00 0.000000e+00
1
Step 503000
Ar -1.083081e+00 0.000000e+00 0.000000e+00
1
Step 504000
Ar -1.074193e+00 0.000000e+00 0.000000e+00
1
Step 505000
Ar -9.118011e-01 0.000000e+00 0.000000e+00
1
Step 506000
Ar -9.130824e-01 0.000000e+00 0.000000e+00
1
Step 507000
Ar -9.189691e-01 0.000000e+00 0.000000e+00
1
Step 508000
Ar -9.151212e-01 0.000000e+00 0.000000e+00
1
Step 509000
Ar -9.151546e-01 0.000000e+00 0.000000e+00
1
Step 510000
Ar -9.675300e-01 0.000000e+00 0.000000e+00
1
Step 511000
Ar -1.074297e+00 0.000000e+00 0.000000e+00
1
Step 512000
Ar -1.076837e+00 0.000000e+00 0.000000e+00
1
Step 513000
Ar -1.078063e+00 0.000000e+00 0.000000e+00
1
Step 514000
Ar -9.162927e-01 0.000000e+00 0.000000e+00
1
Step 515000
Ar -9.206185e-01 0.000000e+00 0.000000e+00
1
Step 516000
Ar -9.175890e-01 0.000000e+00 0.000000e+00
1
Step 517000
Ar -9.111324e-01 0.000000e+00 0.000000e+00
1
Step 518000
Ar -9.140460e-01 0.000000e+00 0.000000e+00
1
Step 519000
Ar -9.159057e-01 0.000000e+00 0.000000e+00
1
Step 520000
Ar -9.259363e-01 0.000000e+00 0.000000e+00
1
Step 521000
Ar -1.154651e+00 0.000000e+00 0.000000e+00
1
Step 522000
Ar -8.686105e-01 0.000000e+00 0.000000e+00
1
Step 523000
Ar -8.631382e-01 0.000000e+00 0.000000e+00
1
Step 524000
Ar -8.681608e-01 0.000000e+00 0.000000e+00
1
Step 525000
Ar -8.672925e-01 0.000000e+00 0.000000e+00
1
Step 526000
Ar -8.574699e-01 0.000000e+00 0.000000e+00
1
Step 527000
Ar -8.626982e-01 0.000000e+00 0.000000e+00
1
Step 528000
Ar -9.721144e-01 0.000000e+00 0.000000e+00
1
Step 529000
Ar -9.148041e-01 0.000000e+00 0.000000e+00
1
Step 530000
Ar -9.098585e-01 0.000000e+00 0.000000e+00
1
Step 531000
Ar -9.105821e-01 0.000000e+00 0.000000e+00
1
Step 532000
Ar -1.018052e+00 0.000000e+00 0.000000e+00
1
Step 533000
Ar -1.077288e+00 0.000000e+00 0.000000e+00
1
Step 534000
Ar -1.081098e+00 0.000000e+00 0.000000e+00
1
Step 535000
Ar -1.082018e+00 0.000000e+00 0.000000e+00
1
Step 536000
Ar -1.085443e+00 0.000000e+00 0.000000e+00
1
Step 537000
Ar -1.082051e+00 0.000000e+00 0.000000e+00
1
Step 538000
Ar -1.055999e+00 0.000000e+00 0.000000e+00
1
Step 539000
Ar -9.785136e-01 0.000000e+00 0.000000e+00
1
Step 540000
Ar -9.846317e-01 0.000000e+00 0.000000e+00
1
Step 541000
Ar -9.274095e-01 0.000000e+00 0.000000e+00
1
Step 542000
Ar -9.810531e-01 0.000000e+00 0.000000e+00
1
Step 543000
Ar -1.028106e+00 0.000000e+00 0.000000e+00
1
Step 544000
Ar -1.077999e+00 0.000000e+00 0.000000e+00
1
Step 545000
Ar -9.815167e-01 0.000000e+00 0.000000e+00
1
Step 546000
Ar -8.762412e-01 0.000000e+00 0.000000e+00
1
Step 547000
Ar -1.064119e+00 0.000000e+00 0.000000e+00
1
Step 548000
Ar -8.495844e-01 0.000000e+00 0.000000e+00
1
Step 549000
Ar -9.150894e-01 0.000000e+00 0.000000e+00
1
Step 550000
Ar -1.005158e+00 0.000000e+00 0.000000e+00
1
Step 551000
Ar -9.827607e-01 0.000000e+00 0.000000e+00
1
Step 552000
Ar -1.071587e+00 0.000000e+00 0.000000e+00
1
Step 553000
Ar -1.050599e+00 0.000000e+00 0.000000e+00
1
Step 554000
Ar -9.686986e-01 0.000000e+00 0.000000e+00
1
Step 555000
Ar -1.104314e+00 0.000000e+00 0.000000e+00
1
Step 556000
Ar -9.680699e-01 0.000000e+00 0.000000e+00
1
Step 557000
Ar -1.174175e+00 0.000000e+00 0.000000e+00
1
Step 558000
Ar -1.134350e+00 0.000000e+00 0.000000e+00
1
Step 559000
Ar -1.095082e+00 0.000000e+00 0.000000e+00
1
Step 560000
Ar -9.641163e-01 0.000000e+00 0.000000e+00
1
Step 561000
Ar -9.700268e-01 0.000000e+00 0.000000e+00
1
Step 562000
Ar -9.660970e-01 0.000000e+00 0.000000e+00
1
Step 563000
Ar -9.650096e-01 0.000000e+00 0.000000e+00
1
Step 564000
Ar -9.698977e-01 0.000000e+00 0.000000e+00
1
Step 565000
Ar -9.640229e-01 0.000000e+00 0.000000e+00
1
Step 566000
Ar -9.913944e-01 0.000000e+00 0.000000e+00
1
Step 567000
Ar -1.019920e+00 0.000000e+00 0.000000e+00
1
Step 568000
Ar -1.121821e+00 0.000000e+00 0.000000e+00
1
Step 569000
Ar -1.121515e+00 0.000000e+00 0.000000e+00
1
Step 570000
Ar -1.124123e+00 0.000000e+00 0.000000e+00
1
Step 571000
Ar -1.121809e+00 0.000000e+00 0.000000e+00
1
Step 572000
Ar -1.081321e+00 0.000000e+00 0.000000e+00
1
Step 573000
Ar -1.122896e+00 0.000000e+00 0.000000e+00
1
Step 574000
Ar -8.156782e-01 0.000000e+00 0.000000e+00
1
Step 575000
Ar -9.700542e-01 0.000000e+00 0.000000e+00
1
Step 576000
Ar -9.692780e-01 0.000000e+00 0.000000e+00
1
Step 577000
Ar -9.342909e-01 0.000000e+00 0.000000e+00
1
Step 578000
Ar -8.371512e-01 0.000000e+00 0.000000e+00
1
Step 579000
Ar -9.225482e-01 0.000000e+00 0.000000e+00
1
Step 580000
Ar -1.128695e+00 0.000000e+00 0.000000e+00
1
Step 581000
Ar -8.424657e-01 0.000000e+00 0.000000e+00
1
Step 582000
Ar 9.612476e-01 0.000000e+00 0.000000e+00
1
Step 583000
Ar 1.187976e+00 0.000000e+00 0.000000e+00
1
Step 584000
Ar 1.180017e+00 0.000000e+00 0.000000e+00
1
Step 585000
Ar 8.745856e-01 0.000000e+00 0.000000e+00
1
Step 586000
Ar 8.396280e-01 0.000000e+00 0.000000e+00
1
Step 587000
Ar 6.622688e-01 0.000000e+00 0.000000e+00
1
Step 588000
Ar 9.746400e-01 0.000000e+00 0.000000e+00
1
Step 589000
Ar 9.506503e-01 0.000000e+00 0.000000e+00
1
Step 590000
Ar 9.308214e-01 0.000000e+00 0.000000e+00
1
Step 591000
Ar 1.101636e+00 0.000000e+00 0.000000e+00
1
Step 592000
Ar 6.171269e-01 0.000000e+00 0.000000e+00
1
Step 593000
Ar 7.129071e-01 0.000000e+00 0.000000e+00
1
Step 594000
Ar -9.577401e-01 0.000000e+00 0.000000e+00
1
Step 595000
Ar -7.598972e-01 0.000000e+00 0.000000e+00
1
Step 596000
Ar -1.007064e+00 0.000000e+00 0.000000e+00
1
Step 597000
Ar -1.057328e+00 0.000000e+00 0.000000e+00
1
Step 598000
Ar -1.077634e+00 0.000000e+00 0.000000e+00
1
Step 599000
Ar -9.274771e-01 0.000000e+00 0.000000e+00
1
Step 600000
Ar -9.557067e-01 0.000000e+00 0.000000e+00
1
Step 601000
Ar -9.585772e-01 0.000000e+00 0.000000e+00
1
Step 602000
Ar -9.569120e-01 0.000000e+00 0.000000e+00
1
Step 603000
Ar -9.599175e-01 0.000000e+00 0.000000e+00
1
Step 604000
Ar -9.550809e-01 0.000000e+00 0.000000e+00
1
Step 605000
Ar -9.592784e-01 0.000000e+00 0.000000e+00
1
Step 606000
Ar -9.560252e-01 0.000000e+00 0.000000e+00
1
Step 607000
Ar -9.577863e-01 0.000000e+00 0.000000e+00
1
Step 608000
Ar -9.558143e-01 0.000000e+00 0.000000e+00
1
Step 609000
Ar -9.659654e-01 0.000000e+00 0.000000e+00
1
Step 610000
Ar -9.654370e-01 0.000000e+00 0.000000e+00
1
Step 611000
Ar -9.578494e-01 0.000000e+00 0.000000e+00
1
Step 612000
Ar -9.639181e-01 0.000000e+00 0.000000e+00
1
Step 613000
Ar -9.570168e-01 0.000000e+00 0.000000e+00
1
Step 614000
Ar -9.540688e-01 0.000000e+00 0.000000e+00
1
Step 615000
Ar -9.591076e-01 0.000000e+00 0.000000e+00
1
Step 616000
Ar -9.556868e-01 0.000000e+00 0.000000e+00
1
Step 617000
Ar -9.549002e-01 0.000000e+00 0.000000e+00
1
Step 618000
Ar -9.575053e-01 0.000000e+00 0.000000e+00
1
Step 619000
Ar -9.933229e-01 0.000000e+00 0.000000e+00
1
Step 620000
Ar -9.290631e-01 0.000000e+00 0.000000e+00
1
Step 621000
Ar -9.333953e-01 0.000000e+00 0.000000e+00
1
Step 622000
Ar -1.261154e+00 0.000000e+00 0.000000e+00
1
Step 623000
Ar -8.041890e-01 0.000000e+00 0.000000e+00
1
Step 624000
Ar -1.015878e+00 0.000000e+00 0.000000e+00
1
Step 625000
Ar -1.030497e+00 0.000000e+00 0.000000e+00
1
Step 626000
Ar -1.138068e+00 0.000000e+00 0.000000e+00
1
Step 627000
Ar -1.157920e+00 0.000000e+00 0.000000e+00
1
Step 628000
Ar -1.133723e+00 0.000000e+00 0.000000e+00
1
Step 629000
Ar -8.502767e-01 0.000000e+00 0.000000e+00
1
Step 630000
Ar -9.942533e-01 0.000000e+00 0.000000e+00
1
Step 631000
Ar -1.302885e+00 0.000000e+00 0.000000e+00
1
Step 632000
Ar -8.113571e-01 0.000000e+00 0.000000e+00
1
Step 633000
Ar -1.056218e+00 0.000000e+00 0.000000e+00
1
Step 634000
Ar -1.190187e+00 0.000000e+00 0.000000e+00
1
Step 635000
Ar -7.907749e-01 0.000000e+00 0.000000e+00
1
Step 636000
Ar -1.017359e+00 0.000000e+00 0.000000e+00
1
Step 637000
Ar -1.157003e+00 0.000000e+00 0.000000e+00
1
Step 638000
Ar -9.400913e-01 0.000000e+00 0.000000e+00
1
Step 639000
Ar -8.815233e-01 0.000000e+00 0.000000e+00
1
Step 640000
Ar -7.511081e-01 0.000000e+00 0.000000e+00
1
Step 641000
Ar -1.121184e+00 0.000000e+00 0.000000e+00
1
Step 642000
Ar -1.121613e+00 0.000000e+00 0.000000e+00
1
Step 643000
Ar -1.119857e+00 0.000000e+00 0.000000e+00
1
Step 644000
Ar -1.120230e+00 0.000000e+00 0.000000e+00
1
Step 645000
Ar -1.048909e+00 0.000000e+00 0.000000e+00
1
Step 646000
Ar -7.570306e-01 0.000000e+00 0.000000e+00
1
Step 647000
Ar -9.887838e-01 0.000000e+00 0.000000e+00
1
Step 648000
Ar -1.031684e+00 0.000000e+00 0.000000e+00
1
Step 649000
Ar -1.017916e+00 0.000000e+00 0.000000e+00
1
Step 650000
Ar -1.136170e+00 0.000000e+00 0.000000e+00
1
Step 651000
Ar -1.219145e+00 0.000000e+00 0.000000e+00
1
Step 652000