1
Step 120000
Ar 1.003405e+00 0.000000e+00 0.000000e+00
1
Step 121000
Ar 1.038180e+00 0.000000e+00 0.000000e+00
1
Step 122000
Ar 1.118483e+00 0.000000e+00 0.000000e+00
1
Step 123000
Ar 1.129906e+00 0.000000e+00 0.000000e+00
1
Step 124000
Ar 1.086170e+00 0.000000e+00 0.000000e+00
1
Step 125000
Ar 8.083192e-01 0.000000e+00 0.000000e+00
1
Step 126000
Ar 9.038038e-01 0.000000e+00 0.000000e+00
1
Step 127000
Ar 8.790280e-01 0.000000e+00 0.000000e+00
1
Step 128000
Ar 8.527728e-01 0.000000e+00 0.000000e+00
1
Step 129000
Ar 8.384748e-01 0.000000e+00 0.000000e+00
1
Step 130000
Ar 8.961818e-01 0.000000e+00 0.000000e+00
1
Step 131000
Ar 5.766073e-01 0.000000e+00 0.000000e+00
1
Step 132000
Ar 5.467291e-01 0.000000e+00 0.000000e+00
1
Step 133000
Ar 5.561421e-01 0.000000e+00 0.000000e+00
1
Step 134000
Ar 5.931856e-01 0.000000e+00 0.000000e+00
1
Step 135000
Ar 8.217442e-01 0.000000e+00 0.000000e+00
1
Step 136000
Ar 8.629692e-01 0.000000e+00 0.000000e+00
1
Step 137000
Ar 1.022810e+00 0.000000e+00 0.000000e+00
1
Step 138000
Ar 1.049035e+00 0.000000e+00 0.000000e+00
1
Step 139000
Ar 1.066497e+00 0.000000e+00 0.000000e+00
1
Step 140000
Ar 1.059723e+00 0.000000e+00 0.000000e+00
1
Step 141000
Ar 9.843657e-01 0.000000e+00 0.000000e+00
1
Step 142000
Ar 7.082038e-01 0.000000e+00 0.000000e+00
1
Step 143000
Ar 9.167087e-01 0.000000e+00 0.000000e+00
1
Step 144000
Ar 1.013953e+00 0.000000e+00 0.000000e+00
1
Step 145000
Ar 9.933469e-01 0.000000e+00 0.000000e+00
1
Step 146000
Ar 9.539170e-01 0.000000e+00 0.000000e+00
1
Step 147000
Ar 9.315547e-01 0.000000e+00 0.000000e+00
1
Step 148000
Ar 9.760070e-01 0.000000e+00 0.000000e+00
1
Step 149000
Ar 9.399715e-01 0.000000e+00 0.000000e+00
1
Step 150000
Ar 9.657301e-01 0.000000e+00 0.000000e+00
1
Step 151000
Ar 1.196112e+00 0.000000e+00 0.000000e+00
1
Step 152000
Ar 1.076664e+00 0.000000e+00 0.000000e+00
1
Step 153000
Ar 1.177450e+00 0.000000e+00 0.000000e+00
1
Step 154000
Ar 1.233488e+00 0.000000e+00 0.000000e+00
1
Step 155000
Ar 1.097443e+00 0.000000e+00 0.000000e+00
1
Step 156000
Ar 1.272043e+00 0.000000e+00 0.000000e+00
1
Step 157000
Ar 1.294943e+00 0.000000e+00 0.000000e+00
1
Step 158000
Ar 1.216464e+00 0.000000e+00 0.000000e+00
1
Step 159000
Ar 9.205733e-01 0.000000e+00 0.000000e+00
1
Step 160000
Ar 1.003698e+00 0.000000e+00 0.000000e+00
1
Step 161000
Ar 1.010863e+00 0.000000e+00 0.000000e+00
1
Step 162000
Ar 7.867514e-01 0.000000e+00 0.000000e+00
1
Step 163000
Ar 7.552931e-01 0.000000e+00 0.000000e+00
1
Step 164000
Ar 8.298934e-01 0.000000e+00 0.000000e+00
1
Step 165000
Ar 8.633229e-01 0.000000e+00 0.000000e+00
1
Step 166000
Ar 9.576833e-01 0.000000e+00 0.000000e+00
1
Step 167000
Ar 9.327865e-01 0.000000e+00 0.000000e+00
1
Step 168000
Ar 8.828020e-01 0.000000e+00 0.000000e+00
1
Step 169000
Ar 9.104947e-01 0.000000e+00 0.000000e+00
1
Step 170000
Ar 8.915798e-01 0.000000e+00 0.000000e+00
1
Step 171000
Ar 8.774980e-01 0.000000e+00 0.000000e+00
1
Step 172000
Ar 6.294714e-01 0.000000e+00 0.000000e+00
1
Step 173000
Ar 7.222123e-01 0.000000e+00 0.000000e+00
1
Step 174000
Ar 6.902814e-01 0.000000e+00 0.000000e+00
1
Step 175000
Ar 7.761694e-01 0.000000e+00 0.000000e+00
1
Step 176000
Ar 7.458480e-01 0.000000e+00 0.000000e+00
1
Step 177000
Ar 8.008326e-01 0.000000e+00 0.000000e+00
1
Step 178000
Ar 7.692789e-01 0.000000e+00 0.000000e+00
1
Step 179000
Ar 6.773868e-01 0.000000e+00 0.000000e+00
1
Step 180000
Ar 6.620103e-01 0.000000e+00 0.000000e+00
1
Step 181000
Ar 6.424617e-01 0.000000e+00 0.000000e+00
1
Step 182000
Ar 7.384477e-01 0.000000e+00 0.000000e+00
1
Step 183000
Ar 4.693476e-01 0.000000e+00 0.000000e+00
1
Step 184000
Ar 5.299658e-01 0.000000e+00 0.000000e+00
1
Step 185000
Ar 2.579859e-01 0.000000e+00 0.000000e+00
1
Step 186000
Ar -7.623190e-01 0.000000e+00 0.000000e+00
1
Step 187000
Ar -9.904870e-01 0.000000e+00 0.000000e+00
1
Step 188000
Ar -1.042838e+00 0.000000e+00 0.000000e+00
1
Step 189000
Ar -1.121622e+00 0.000000e+00 0.000000e+00
1
Step 190000
Ar -1.218471e+00 0.000000e+00 0.000000e+00
1
Step 191000
Ar -1.258471e+00 0.000000e+00 0.000000e+00
1
Step 192000
Ar -1.228045e+00 0.000000e+00 0.000000e+00
1
Step 193000
Ar -1.241749e+00 0.000000e+00 0.000000e+00
1
Step 194000
Ar -8.967849e-01 0.000000e+00 0.000000e+00
1
Step 195000
Ar -9.460434e-01 0.000000e+00 0.000000e+00
1
Step 196000
Ar -1.099621e+00 0.000000e+00 0.000000e+00
1
Step 197000
Ar -1.082073e+00 0.000000e+00 0.000000e+00
1
Step 198000
Ar -1.063825e+00 0.000000e+00 0.000000e+00
1
Step 199000
Ar -1.018834e+00 0.000000e+00 0.000000e+00
1
Step 200000
Ar -1.008627e+00 0.000000e+00 0.000000e+00
1
Step 201000
Ar -9.709690e-01 0.000000e+00 0.000000e+00
1
Step 202000
Ar -1.169410e+00 0.000000e+00 0.000000e+00
1
Step 203000
Ar -1.202874e+00 0.000000e+00 0.000000e+00
1
Step 204000
Ar -1.141195e+00 0.000000e+00 0.000000e+00
1
Step 205000
Ar -1.051145e+00 0.000000e+00 0.000000e+00
1
Step 206000
Ar -1.187073e+00 0.000000e+00 0.000000e+00
1
Step 207000
Ar -1.147964e+00 0.000000e+00 0.000000e+00
1
Step 208000
Ar -1.158094e+00 0.000000e+00 0.000000e+00
1
Step 209000
Ar -1.178404e+00 0.000000e+00 0.000000e+00
1
Step 210000
Ar -1.110045e+00 0.000000e+00 0.000000e+00
1
Step 211000
Ar -1.073390e+00 0.000000e+00 0.000000e+00
1
Step 212000
Ar -1.089275e+00 0.000000e+00 0.000000e+00
1
Step 213000
Ar -9.128877e-01 0.000000e+00 0.000000e+00
1
Step 214000
Ar -8.625084e-01 0.000000e+00 0.000000e+00
1
Step 215000
Ar -8.374351e-01 0.000000e+00 0.000000e+00
1
Step 216000
Ar -9.850884e-01 0.000000e+00 0.000000e+00
1
Step 217000
Ar -8.787171e-01 0.000000e+00 0.000000e+00
1
Step 218000
Ar -8.861022e-01 0.000000e+00 0.000000e+00
1
Step 219000
Ar -9.318301e-01 0.000000e+00 0.000000e+00
1
Step 220000
Ar -9.536538e-01 0.000000e+00 0.000000e+00
1
Step 221000
Ar -9.038750e-01 0.000000e+00 0.000000e+00
1
Step 222000
Ar -9.169219e-01 0.000000e+00 0.000000e+00
1
Step 223000
Ar -9.648174e-01 0.000000e+00 0.000000e+00
1
Step 224000
Ar -9.251668e-01 0.000000e+00 0.000000e+00
1
Step 225000
Ar -1.024076e+00 0.000000e+00 0.000000e+00
1
Step 226000
Ar -1.035039e+00 0.000000e+00 0.000000e+00
1
Step 227000
Ar -1.044469e+00 0.000000e+00 0.000000e+00
1
Step 228000
Ar -7.881734e-01 0.000000e+00 0.000000e+00
1
Step 229000
Ar -8.096472e-01 0.000000e+00 0.000000e+00
1
Step 230000
Ar -8.181916e-01 0.000000e+00 0.000000e+00
1
Step 231000
Ar -5.822216e-01 0.000000e+00 0.000000e+00
1
Step 232000
Ar -5.408060e-01 0.000000e+00 0.000000e+00
1
Step 233000
Ar -4.890073e-01 0.000000e+00 0.000000e+00
1
Step 234000
Ar -3.015098e-01 0.000000e+00 0.000000e+00
1
Step 235000
Ar -2.014908e-01 0.000000e+00 0.000000e+00
1
Step 236000
Ar -2.558978e-01 0.000000e+00 0.000000e+00
1
Step 237000
Ar -2.629575e-01 0.000000e+00 0.000000e+00
1
Step 238000
Ar -5.063837e-01 0.000000e+00 0.000000e+00
1
Step 239000
Ar -5.257566e-01 0.000000e+00 0.000000e+00
1
Step 240000
Ar -7.003136e-01 0.000000e+00 0.000000e+00
1
Step 241000
Ar -9.802692e-01 0.000000e+00 0.000000e+00
1
Step 242000
Ar -7.485974e-01 0.000000e+00 0.000000e+00
1
Step 243000
Ar -7.981603e-01 0.000000e+00 0.000000e+00
1
Step 244000
Ar -8.291679e-01 0.000000e+00 0.000000e+00
1
Step 245000
Ar -6.819567e-01 0.000000e+00 0.000000e+00
1
Step 246000
Ar -8.456483e-01 0.000000e+00 0.000000e+00
1
Step 247000
Ar -7.756628e-01 0.000000e+00 0.000000e+00
1
Step 248000
Ar -7.375598e-01 0.000000e+00 0.000000e+00
1
Step 249000
Ar -8.599231e-01 0.000000e+00 0.000000e+00
1
Step 250000
Ar -7.113999e-01 0.000000e+00 0.000000e+00
1
Step 251000
Ar -6.122165e-01 0.000000e+00 0.000000e+00
1
Step 252000
Ar -6.620191e-01 0.000000e+00 0.000000e+00
1
Step 253000
Ar -7.710577e-01 0.000000e+00 0.000000e+00
1
Step 254000
Ar -7.300964e-01 0.000000e+00 0.000000e+00
1
Step 255000
Ar -6.263709e-01 0.000000e+00 0.000000e+00
1
Step 256000
Ar -5.990389e-01 0.000000e+00 0.000000e+00
1
Step 257000
Ar -6.902845e-01 0.000000e+00 0.000000e+00
1
Step 258000
Ar -4.567726e-01 0.000000e+00 0.000000e+00
1
Step 259000
Ar -4.422235e-01 0.000000e+00 0.000000e+00
1
Step 260000
Ar -4.021426e-01 0.000000e+00 0.000000e+00
1
Step 261000
Ar -3.371363e-01 0.000000e+00 0.000000e+00
1
Step 262000
Ar -3.160642e-01 0.000000e+00 0.000000e+00
1
Step 263000
Ar -2.807731e-01 0.000000e+00 0.000000e+00
1
Step 264000
Ar -3.254256e-01 0.000000e+00 0.000000e+00
1
Step 265000
Ar -6.400013e-01 0.000000e+00 0.000000e+00
1
Step 266000
Ar -6.477587e-01 0.000000e+00 0.000000e+00
1
Step 267000
Ar -7.567255e-01 0.000000e+00 0.000000e+00
1
Step 268000
Ar -5.480585e-01 0.000000e+00 0.000000e+00
1
Step 269000
Ar -7.216875e-01 0.000000e+00 0.000000e+00
1
Step 270000
Ar -7.322122e-01 0.000000e+00 0.000000e+00
1
Step 271000
Ar -9.382796e-01 0.000000e+00 0.000000e+00
1
Step 272000
Ar -8.922397e-01 0.000000e+00 0.000000e+00
1
Step 273000
Ar -8.259072e-01 0.000000e+00 0.000000e+00
1
Step 274000
Ar -8.031904e-01 0.000000e+00 0.000000e+00
1
Step 275000
Ar -8.131304e-01 0.000000e+00 0.000000e+00
1
Step 276000
Ar -8.518056e-01 0.000000e+00 0.000000e+00
1
Step 277000
Ar -9.442303e-01 0.000000e+00 0.000000e+00
1
Step 278000
Ar -8.701715e-01 0.000000e+00 0.000000e+00
1
Step 279000
Ar -9.622737e-01 0.000000e+00 0.000000e+00
1
Step 280000
Ar -9.549647e-01 0.000000e+00 0.000000e+00
1
Step 281000
Ar -9.984544e-01 0.000000e+00 0.000000e+00
1
Step 282000
Ar -1.000562e+00 0.000000e+00 0.000000e+00
1
Step 283000
Ar -7.827440e-01 0.000000e+00 0.000000e+00
1
Step 284000
Ar -7.855145e-01 0.000000e+00 0.000000e+00
1
Step 285000
Ar -8.737534e-01 0.000000e+00 0.000000e+00
1
Step 286000
Ar -9.259240e-01 0.000000e+00 0.000000e+00
1
Step 287000
Ar -1.212368e+00 0.000000e+00 0.000000e+00
1
Step 288000
Ar -1.104920e+00 0.000000e+00 0.000000e+00
1
Step 289000
Ar -1.070474e+00 0.000000e+00 0.000000e+00
1
Step 290000
Ar -1.278683e+00 0.000000e+00 0.000000e+00
1
Step 291000
Ar -1.268146e+00 0.000000e+00 0.000000e+00
1
Step 292000
Ar -1.309741e+00 0.000000e+00 0.000000e+00
1
Step 293000
Ar -1.293645e+00 0.000000e+00 0.000000e+00
1
Step 294000
Ar -1.330106e+00 0.000000e+00 0.000000e+00
1
Step 295000
Ar -1.343720e+00 0.000000e+00 0.000000e+00
1
Step 296000
Ar -1.128359e+00 0.000000e+00 0.000000e+00
1
Step 297000
Ar -1.139352e+00 0.000000e+00 0.000000e+00
1
Step 298000
Ar -9.749089e-01 0.000000e+00 0.000000e+00
1
Step 299000
Ar -9.991841e-01 0.000000e+00 0.000000e+00
1
Step 300000
Ar -9.059527e-01 0.000000e+00 0.000000e+00
1
Step 301000
Ar -8.518583e-01 0.000000e+00 0.000000e+00
1
Step 302000
Ar -7.929174e-01 0.000000e+00 0.000000e+00
1
Step 303000
Ar -8.785635e-01 0.000000e+00 0.000000e+00
1
Step 304000
Ar -1.242909e+00 0.000000e+00 0.000000e+00
1
Step 305000
Ar -1.157555e+00 0.000000e+00 0.000000e+00
1
Step 306000
Ar -1.193903e+00 0.000000e+00 0.000000e+00
1
Step 307000
Ar -1.149709e+00 0.000000e+00 0.000000e+00
1
Step 308000
Ar -1.353020e+00 0.000000e+00 0.000000e+00
1
Step 309000
Ar -1.381192e+00 0.000000e+00 0.000000e+00
1
Step 310000
Ar -1.069467e+00 0.000000e+00 0.000000e+00
1
Step 311000
Ar -1.014483e+00 0.000000e+00 0.000000e+00
1
Step 312000
Ar -1.235068e+00 0.000000e+00 0.000000e+00
1
Step 313000
Ar -1.099572e+00 0.000000e+00 0.000000e+00
1
Step 314000
Ar -9.848227e-01 0.000000e+00 0.000000e+00
1
Step 315000
Ar -1.033524e+00 0.000000e+00 0.000000e+00
1
Step 316000
Ar -1.024093e+00 0.000000e+00 0.000000e+00
1
Step 317000
Ar -1.059724e+00 0.000000e+00 0.000000e+00
1
Step 318000
Ar -1.168824e+00 0.000000e+00 0.000000e+00
1
Step 319000
Ar -1.204020e+00 0.000000e+00 0.000000e+00
1
Step 320000
Ar -1.216309e+00 0.000000e+00 0.000000e+00
1
Step 321000
Ar -1.290526e+00 0.000000e+00 0.000000e+00
1
Step 322000
Ar -1.254950e+00 0.000000e+00 0.000000e+00
1
Step 323000
Ar -1.391156e+00 0.000000e+00 0.000000e+00
1
Step 324000
Ar -1.322671e+00 0.000000e+00 0.000000e+00
1
Step 325000
Ar -1.410663e+00 0.000000e+00 0.000000e+00
1
Step 326000
Ar -1.456190e+00 0.000000e+00 0.000000e+00
1
Step 327000
Ar -4.746813e-01 0.000000e+00 0.000000e+00
1
Step 328000
Ar -3.765431e-01 0.000000e+00 0.000000e+00
1
Step 329000
Ar -4.122370e-01 0.000000e+00 0.000000e+00
1
Step 330000
Ar -4.860282e-01 0.000000e+00 0.000000e+00
1
Step 331000
Ar -3.880863e-01 0.000000e+00 0.000000e+00
1
Step 332000
Ar -2.365672e-01 0.000000e+00 0.000000e+00
1
Step 333000
Ar -7.533174e-02 0.000000e+00 0.000000e+00
1
Step 334000
Ar 2.127389e-01 0.000000e+00 0.000000e+00
1
Step 335000
Ar 4.932116e-01 0.000000e+00 0.000000e+00
1
Step 336000
Ar 4.317165e-01 0.000000e+00 0.000000e+00
1
Step 337000
Ar 5.136753e-01 0.000000e+00 0.000000e+00
1
Step 338000
Ar 4.833340e-01 0.000000e+00 0.000000e+00
1
Step 339000
Ar 4.560943e-01 0.000000e+00 0.000000e+00
1
Step 340000
Ar 3.604624e-01 0.000000e+00 0.000000e+00
1
Step 341000
Ar 3.240879e-01 0.000000e+00 0.000000e+00
1
Step 342000
Ar 4.481478e-01 0.000000e+00 0.000000e+00
1
Step 343000
Ar 3.021941e-01 0.000000e+00 0.000000e+00
1
Step 344000
Ar 2.438805e-01 0.000000e+00 0.000000e+00
1
Step 345000
Ar 3.160380e-01 0.000000e+00 0.000000e+00
1
Step 346000
Ar 1.713078e-01 0.000000e+00 0.000000e+00
1
Step 347000
Ar 7.854256e-01 0.000000e+00 0.000000e+00
1
Step 348000
Ar 7.278396e-01 0.000000e+00 0.000000e+00
1
Step 349000
Ar 7.614218e-01 0.000000e+00 0.000000e+00
1
Step 350000
Ar 6.079741e-01 0.000000e+00 0.000000e+00
1
Step 351000
Ar 6.537339e-01 0.000000e+00 0.000000e+00
1
Step 352000
Ar 6.190504e-01 0.000000e+00 0.000000e+00
1
Step 353000
Ar 7.007994e-01 0.000000e+00 0.000000e+00
1
Step 354000
Ar 6.843826e-01 0.000000e+00 0.000000e+00
1
Step 355000
Ar 6.480429e-01 0.000000e+00 0.000000e+00
1
Step 356000
Ar 7.641960e-01 0.000000e+00 0.000000e+00
1
Step 357000
Ar 8.466143e-01 0.000000e+00 0.000000e+00
1
Step 358000
Ar 8.180028e-01 0.000000e+00 0.000000e+00
1
Step 359000
Ar 7.933481e-01 0.000000e+00 0.000000e+00
1
Step 360000
Ar 8.433965e-01 0.000000e+00 0.000000e+00
1
Step 361000
Ar 8.324127e-01 0.000000e+00 0.000000e+00
1
Step 362000
Ar 8.094304e-01 0.000000e+00 0.000000e+00
1
Step 363000
Ar 5.384150e-01 0.000000e+00 0.000000e+00
1
Step 364000
Ar 4.985055e-01 0.000000e+00 0.000000e+00
1
Step 365000
Ar 5.973501e-01 0.000000e+00 0.000000e+00
1
Step 366000
Ar 6.739135e-01 0.000000e+00 0.000000e+00
1
Step 367000
Ar 6.688474e-01 0.000000e+00 0.000000e+00
1
Step 368000
Ar 6.302627e-01 0.000000e+00 0.000000e+00
1
Step 369000
Ar 5.652409e-01 0.000000e+00 0.000000e+00
1
Step 370000
Ar 5.232261e-01 0.000000e+00 0.000000e+00
1
Step 371000
Ar 7.306933e-01 0.000000e+00 0.000000e+00
1
Step 372000
Ar 7.590452e-01 0.000000e+00 0.000000e+00
1
Step 373000
Ar 7.092143e-01 0.000000e+00 0.000000e+00
1
Step 374000
Ar 6.154580e-01 0.000000e+00 0.000000e+00
1
Step 375000
Ar 5.837439e-01 0.000000e+00 0.000000e+00
1
Step 376000
Ar 5.743883e-01 0.000000e+00 0.000000e+00
1
Step 377000
Ar 5.161131e-01 0.000000e+00 0.000000e+00
1
Step 378000
Ar 6.863727e-01 0.000000e+00 0.000000e+00
1
Step 379000
Ar 5.561045e-01 0.000000e+00 0.000000e+00
1
Step 380000
Ar 2.730131e-01 0.000000e+00 0.000000e+00
1
Step 381000
Ar 2.637605e-01 0.000000e+00 0.000000e+00
1
Step 382000
Ar 4.037674e-01 0.000000e+00 0.000000e+00
1
Step 383000
Ar 3.853552e-01 0.000000e+00 0.000000e+00
1
Step 384000
Ar 3.409747e-01 0.000000e+00 0.000000e+00
1
Step 385000
Ar 3.675439e-01 0.000000e+00 0.000000e+00
1
Step 386000
Ar 3.457418e-01 0.000000e+00 0.000000e+00
1
Step 387000
Ar 4.761567e-01 0.000000e+00 0.000000e+00
1
Step 388000
Ar 4.277240e-01 0.000000e+00 0.000000e+00
1
Step 389000
Ar 4.163353e-01 0.000000e+00 0.000000e+00
1
Step 390000
Ar 3.916686e-01 0.000000e+00 0.000000e+00
1
Step 391000
Ar 2.259485e-01 0.000000e+00 0.000000e+00
1
Step 392000
Ar 1.931236e-01 0.000000e+00 0.000000e+00
1
Step 393000
Ar 3.861609e-02 0.000000e+00 0.000000e+00
1
Step 394000
Ar 9.614188e-02 0.000000e+00 0.000000e+00
1
Step 395000
Ar 1.162362e-01 0.000000e+00 0.000000e+00
1
Step 396000
Ar 7.650288e-02 0.000000e+00 0.000000e+00
1
Step 397000
Ar 5.787633e-02 0.000000e+00 0.000000e+00
1
Step 398000
Ar 1.270096e-01 0.000000e+00 0.000000e+00
1
Step 399000
Ar 3.967732e-01 0.000000e+00 0.000000e+00
1
Step 400000
Ar 5.099911e-01 0.000000e+00 0.000000e+00
1
Step 401000
Ar 4.387319e-01 0.000000e+00 0.000000e+00
1
Step 402000
Ar 4.134454e-01 0.000000e+00 0.000000e+00
1
Step 403000
Ar 4.545605e-01 0.000000e+00 0.000000e+00
1
Step 404000
Ar 4.650049e-01 0.000000e+00 0.000000e+00
1
Step 405000
Ar 4.930405e-01 0.000000e+00 0.000000e+00
1
Step 406000
Ar -1.801411e-01 0.000000e+00 0.000000e+00
1
Step 407000
Ar -7.054470e-01 0.000000e+00 0.000000e+00
1
Step 408000
Ar -5.157253e-01 0.000000e+00 0.000000e+00
1
Step 409000
Ar -4.971885e-01 0.000000e+00 0.000000e+00
1
Step 410000
Ar -6.729920e-01 0.000000e+00 0.000000e+00
1
Step 411000
Ar -5.689767e-01 0.000000e+00 0.000000e+00
1
Step 412000
Ar -5.884430e-01 0.000000e+00 0.000000e+00
1
Step 413000
Ar -6.117992e-01 0.000000e+00 0.000000e+00
1
Step 414000
Ar -6.265290e-01 0.000000e+00 0.000000e+00
1
Step 415000
Ar -6.574781e-01 0.000000e+00 0.000000e+00
1
Step 416000
Ar -6.385658e-01 0.000000e+00 0.000000e+00
1
Step 417000
Ar -7.382362e-01 0.000000e+00 0.000000e+00
1
Step 418000
Ar -7.467102e-01 0.000000e+00 0.000000e+00
1
Step 419000
Ar -7.632304e-01 0.000000e+00 0.000000e+00
1
Step 420000
Ar -7.537434e-01 0.000000e+00 0.000000e+00
1
Step 421000
Ar -7.125265e-01 0.000000e+00 0.000000e+00
1
Step 422000
Ar -5.565016e-01 0.000000e+00 0.000000e+00
1
Step 423000
Ar -5.979542e-01 0.000000e+00 0.000000e+00
1
Step 424000
Ar -5.746393e-01 0.000000e+00 0.000000e+00
1
Step 425000
Ar -5.421956e-01 0.000000e+00 0.000000e+00
1
Step 426000
Ar -5.294051e-01 0.000000e+00 0.000000e+00
1
Step 427000
Ar -4.507453e-01 0.000000e+00 0.000000e+00
1
Step 428000
Ar -3.594741e-01 0.000000e+00 0.000000e+00
1
Step 429000
Ar -2.880931e-01 0.000000e+00 0.000000e+00
1
Step 430000
Ar -4.245182e-01 0.000000e+00 0.000000e+00
1
Step 431000
Ar -4.343760e-01 0.000000e+00 0.000000e+00
1
Step 432000
Ar -3.486416e-01 0.000000e+00 0.000000e+00
1
Step 433000
Ar -4.622258e-01 0.000000e+00 0.000000e+00
1
Step 434000
Ar -5.094045e-01 0.000000e+00 0.000000e+00
1
Step 435000
Ar -3.545888e-01 0.000000e+00 0.000000e+00
1
Step 436000
Ar -3.695385e-01 0.000000e+00 0.000000e+00
1
Step 437000
Ar -3.931333e-01 0.000000e+00 0.000000e+00
1
Step 438000
Ar -4.150365e-01 0.000000e+00 0.000000e+00
1
Step 439000
Ar -3.814201e-01 0.000000e+00 0.000000e+00
1
Step 440000
Ar -3.031926e-01 0.000000e+00 0.000000e+00
1
Step 441000
Ar -3.078059e-01 0.000000e+00 0.000000e+00
1
Step 442000
Ar -5.600438e-01 0.000000e+00 0.000000e+00
1
Step 443000
Ar -6.740499e-01 0.000000e+00 0.000000e+00
1
Step 444000
Ar -6.205501e-01 0.000000e+00 0.000000e+00
1
Step 445000
Ar -6.032891e-01 0.000000e+00 0.000000e+00
1
Step 446000
Ar -6.519847e-01 0.000000e+00 0.000000e+00
1
Step 447000
Ar -6.355431e-01 0.000000e+00 0.000000e+00
1
Step 448000
Ar -6.072525e-01 0.000000e+00 0.000000e+00
1
Step 449000
Ar -8.232060e-01 0.000000e+00 0.000000e+00
1
Step 450000
Ar -1.011039e+00 0.000000e+00 0.000000e+00
1
Step 451000
Ar -1.365293e+00 0.000000e+00 0.000000e+00
1
Step 452000
Ar -1.335786e+00 0.000000e+00 0.000000e+00
1
Step 453000
Ar -1.440689e+00 0.000000e+00 0.000000e+00
1
Step 454000
Ar -1.401080e+00 0.000000e+00 0.000000e+00
1
Step 455000
Ar -1.370034e+00 0.000000e+00 0.000000e+00
1
Step 456000
Ar -1.421365e+00 0.000000e+00 0.000000e+00
1
Step 457000
Ar -1.438190e+00 0.000000e+00 0.000000e+00
1
Step 458000
Ar -9.149691e-01 0.000000e+00 0.000000e+00
1
Step 459000
Ar -8.383569e-01 0.000000e+00 0.000000e+00
1
Step 460000
Ar -8.561282e-01 0.000000e+00 0.000000e+00
1
Step 461000
Ar -8.843676e-01 0.000000e+00 0.000000e+00
1
Step 462000
Ar -9.523642e-01 0.000000e+00 0.000000e+00
1
Step 463000
Ar -1.090071e+00 0.000000e+00 0.000000e+00
1
Step 464000
Ar -1.118012e+00 0.000000e+00 0.000000e+00
1
Step 465000
Ar -1.130951e+00 0.000000e+00 0.000000e+00
1
Step 466000
Ar -1.115272e+00 0.000000e+00 0.000000e+00
1
Step 467000
Ar -1.176466e+00 0.000000e+00 0.000000e+00
1
Step 468000
Ar -1.197418e+00 0.000000e+00 0.000000e+00
1
Step 469000
Ar -1.304620e+00 0.000000e+00 0.000000e+00
1
Step 470000
Ar -1.322156e+00 0.000000e+00 0.000000e+00
1
Step 471000
Ar -1.273062e+00 0.000000e+00 0.000000e+00
1
Step 472000
Ar -1.162180e+00 0.000000e+00 0.000000e+00
1
Step 473000
Ar -1.051521e+00 0.000000e+00 0.000000e+00
1
Step 474000
Ar -8.925674e-01 0.000000e+00 0.000000e+00
1
Step 475000
Ar -9.326684e-01 0.000000e+00 0.000000e+00
1
Step 476000
Ar -9.386194e-01 0.000000e+00 0.000000e+00
1
Step 477000
Ar -9.090721e-01 0.000000e+00 0.000000e+00
1
Step 478000
Ar -1.296701e+00 0.000000e+00 0.000000e+00
1
Step 479000
Ar -1.378297e+00 0.000000e+00 0.000000e+00
1
Step 480000
Ar -1.344609e+00 0.000000e+00 0.000000e+00
1
Step 481000
Ar -1.360314e+00 0.000000e+00 0.000000e+00
1
Step 482000
Ar -1.227457e+00 0.000000e+00 0.000000e+00
1
Step 483000
Ar -1.252534e+00 0.000000e+00 0.000000e+00
1
Step 484000
Ar -1.060034e+00 0.000000e+00 0.000000e+00
1
Step 485000
Ar -9.686814e-01 0.000000e+00 0.000000e+00
1
Step 486000
Ar -9.903265e-01 0.000000e+00 0.000000e+00
1
Step 487000
Ar -1.031683e+00 0.000000e+00 0.000000e+00
1
Step 488000
Ar -1.045471e+00 0.000000e+00 0.000000e+00
1
Step 489000
Ar -1.285945e+00 0.000000e+00 0.000000e+00
1
Step 490000
Ar -1.264499e+00 0.000000e+00 0.000000e+00
1
Step 491000
Ar -1.312251e+00 0.000000e+00 0.000000e+00
1
Step 492000
Ar -1.298199e+00 0.000000e+00 0.000000e+00
1
Step 493000
Ar -1.428772e+00 0.000000e+00 0.000000e+00
1
Step 494000
Ar -1.396437e+00 0.000000e+00 0.000000e+00
1
Step 495000
Ar -1.461630e+00 0.000000e+00 0.000000e+00
1
Step 496000
Ar -1.538393e+00 0.000000e+00 0.000000e+00
1
Step 497000
Ar -1.315193e+00 0.000000e+00 0.000000e+00
1
Step 498000
Ar -1.339355e+00 0.000000e+00 0.000000e+00
1
Step 499000
Ar -1.407682e+00 0.000000e+00 0.000000e+00
1
Step 500000
Ar -1.416429e+00 0.000000e+00 0.000000e+00
1
Step 501000
Ar -1.384042e+00 0.000000e+00 0.000000e+00
1
Step 502000
Ar -1.512021e+00 0.000000e+00 0.000000e+00
1
Step 503000
Ar -1.482574e+00 0.000000e+00 0.000000e+00
1
Step 504000
Ar -1.499228e+00 0.000000e+00 0.000000e+00
1
Step 505000
Ar -1.472418e+00 0.000000e+00 0.000000e+00
1
Step 506000
Ar -1.331568e+00 0.000000e+00 0.000000e+00
1
Step 507000
Ar -1.304229e+00 0.000000e+00 0.000000e+00
1
Step 508000
Ar -1.327716e+00 0.000000e+00 0.000000e+00
1
Step 509000
Ar -1.099733e+00 0.000000e+00 0.000000e+00
1
Step 510000
Ar -1.206930e+00 0.000000e+00 0.000000e+00
1
Step 511000
Ar -1.187627e+00 0.000000e+00 0.000000e+00
1
Step 512000
Ar -1.135420e+00 0.000000e+00 0.000000e+00
1
Step 513000
Ar -1.179016e+00 0.000000e+00 0.000000e+00
1
Step 514000
Ar -1.109501e+00 0.000000e+00 0.000000e+00
1
Step 515000
Ar -1.225949e+00 0.000000e+00 0.000000e+00
1
Step 516000
Ar -1.020905e+00 0.000000e+00 0.000000e+00
1
Step 517000
Ar -1.078526e+00 0.000000e+00 0.000000e+00
1
Step 518000
Ar -1.085832e+00 0.000000e+00 0.000000e+00
1
Step 519000
Ar -1.079330e+00 0.000000e+00 0.000000e+00
1
Step 520000
Ar -1.281021e+00 0.000000e+00 0.000000e+00
1
Step 521000
Ar -1.260621e+00 0.000000e+00 0.000000e+00
1
Step 522000
Ar -1.271630e+00 0.000000e+00 0.000000e+00
1
Step 523000
Ar -9.774366e-01 0.000000e+00 0.000000e+00
1
Step 524000
Ar -7.710774e-01 0.000000e+00 0.000000e+00
1
Step 525000
Ar -7.979661e-01 0.000000e+00 0.000000e+00
1
Step 526000
Ar -6.932588e-01 0.000000e+00 0.000000e+00
1
Step 527000
Ar -8.717841e-01 0.000000e+00 0.000000e+00
1
Step 528000
Ar -6.851835e-01 0.000000e+00 0.000000e+00
1
Step 529000
Ar -6.633069e-01 0.000000e+00 0.000000e+00
1
Step 530000
Ar -7.193257e-01 0.000000e+00 0.000000e+00
1
Step 531000
Ar -8.414376e-01 0.000000e+00 0.000000e+00
1
Step 532000
Ar -6.467532e-01 0.000000e+00 0.000000e+00
1
Step 533000
Ar -9.029121e-01 0.000000e+00 0.000000e+00
1
Step 534000
Ar -7.423644e-01 0.000000e+00 0.000000e+00
1
Step 535000
Ar -8.164577e-01 0.000000e+00 0.000000e+00
1
Step 536000
Ar -8.076302e-01 0.000000e+00 0.000000e+00
1
Step 537000
Ar -4.393177e-01 0.000000e+00 0.000000e+00
1
Step 538000
Ar -4.229238e-01 0.000000e+00 0.000000e+00
1
Step 539000
Ar -6.344695e-01 0.000000e+00 0.000000e+00
1
Step 540000
Ar -3.982880e-01 0.000000e+00 0.000000e+00
1
Step 541000
Ar -4.683612e-01 0.000000e+00 0.000000e+00
1
Step 542000
Ar -5.811656e-01 0.000000e+00 0.000000e+00
1
Step 543000
Ar -5.929034e-01 0.000000e+00 0.000000e+00
1
Step 544000
Ar -5.016583e-01 0.000000e+00 0.000000e+00
1
Step 545000
Ar -4.809758e-01 0.000000e+00 0.000000e+00
1
Step 546000
Ar -3.346141e-01 0.000000e+00 0.000000e+00
1
Step 547000
Ar -4.937005e-01 0.000000e+00 0.000000e+00
1
Step 548000
Ar -5.626740e-01 0.000000e+00 0.000000e+00
1
Step 549000
Ar -5.196786e-01 0.000000e+00 0.000000e+00
1
Step 550000
Ar -5.507035e-01 0.000000e+00 0.000000e+00
1
Step 551000
Ar -5.394808e-01 0.000000e+00 0.000000e+00
1
Step 552000
Ar -3.438461e-01 0.000000e+00 0.000000e+00
1
Step 553000
Ar -3.031558e-02 0.000000e+00 0.000000e+00
1
Step 554000
Ar -5.731828e-02 0.000000e+00 0.000000e+00
1
Step 555000
Ar -2.551966e-02 0.000000e+00 0.000000e+00
1
Step 556000
Ar 1.449771e-01 0.000000e+00 0.000000e+00
1
Step 557000
Ar 1.809201e-01 0.000000e+00 0.000000e+00
1
Step 558000
Ar -9.654330e-03 0.000000e+00 0.000000e+00
1
Step 559000
Ar 2.107881e-02 0.000000e+00 0.000000e+00
1
Step 560000
Ar 4.934924e-02 0.000000e+00 0.000000e+00
1
Step 561000
Ar 8.509314e-02 0.000000e+00 0.000000e+00
1
Step 562000
Ar 1.588037e-01 0.000000e+00 0.000000e+00
1
Step 563000
Ar 1.983728e-01 0.000000e+00 0.000000e+00
1
Step 564000
Ar 2.070060e-01 0.000000e+00 0.000000e+00
1
Step 565000
Ar 2.840454e-01 0.000000e+00 0.000000e+00
1
Step 566000
Ar 1.882741e-01 0.000000e+00 0.000000e+00
1
Step 567000
Ar 8.268896e-03 0.000000e+00 0.000000e+00
1
Step 568000
Ar 3.098782e-02 0.000000e+00 0.000000e+00
1
Step 569000
Ar 2.370122e-01 0.000000e+00 0.000000e+00
1
Step 570000
Ar 2.226452e-01 0.000000e+00 0.000000e+00
1
Step 571000
Ar 3.121204e-01 0.000000e+00 0.000000e+00
1
Step 572000
Ar 2.826439e-01 0.000000e+00 0.000000e+00
1
Step 573000
Ar 2.416106e-01 0.000000e+00 0.000000e+00
1
Step 574000
Ar 1.362787e-01 0.000000e+00 0.000000e+00
1
Step 575000
Ar 1.776155e-01 0.000000e+00 0.000000e+00
1
Step 576000
Ar -2.706660e-01 0.000000e+00 0.000000e+00
1
Step 577000
Ar -7.878885e-02 0.000000e+00 0.000000e+00
1
Step 578000
Ar -2.197976e-01 0.000000e+00 0.000000e+00
1
Step 579000
Ar -1.150941e-01 0.000000e+00 0.000000e+00
1
Step 580000
Ar -1.941609e-01 0.000000e+00 0.000000e+00
1
Step 581000
Ar -1.685725e-01 0.000000e+00 0.000000e+00
1
Step 582000
Ar -9.563637e-02 0.000000e+00 0.000000e+00
1
Step 583000
Ar -1.478280e-01 0.000000e+00 0.000000e+00
1
Step 584000
Ar -1.023007e-01 0.000000e+00 0.000000e+00
1
Step 585000
Ar -2.278064e-01 0.000000e+00 0.000000e+00
1
Step 586000
Ar -1.303347e-01 0.000000e+00 0.000000e+00
1
Step 587000
Ar -1.601126e-01 0.000000e+00 0.000000e+00
1
Step 588000
Ar -1.399634e-01 0.000000e+00 0.000000e+00
1
Step 589000
Ar -2.469105e-01 0.000000e+00 0.000000e+00
1
Step 590000
Ar -3.426004e-03 0.000000e+00 0.000000e+00
1
Step 591000
Ar 1.539923e-01 0.000000e+00 0.000000e+00
1
Step 592000
Ar -6.227918e-02 0.000000e+00 0.000000e+00
1
Step 593000
Ar -1.020318e-03 0.000000e+00 0.000000e+00
1
Step 594000
Ar 1.189173e-01 0.000000e+00 0.000000e+00
1
Step 595000
Ar 1.066336e-01 0.000000e+00 0.000000e+00
1
Step 596000
Ar 6.671448e-02 0.000000e+00 0.000000e+00
1
Step 597000
Ar 1.513467e-01 0.000000e+00 0.000000e+00
1
Step 598000
Ar 1.973923e-01 0.000000e+00 0.000000e+00
1
Step 599000
Ar 4.074517e-01 0.000000e+00 0.000000e+00
1
Step 600000
Ar 3.778259e-01 0.000000e+00 0.000000e+00
1
Step 601000
Ar 3.543310e-01 0.000000e+00 0.000000e+00
1
Step 602000
Ar 2.504482e-01 0.000000e+00 0.000000e+00
1
Step 603000
Ar 3.980298e-01 0.000000e+00 0.000000e+00
1
Step 604000
Ar 3.309196e-01 0.000000e+00 0.000000e+00
1
Step 605000
Ar 3.823406e-01 0.000000e+00 0.000000e+00
1
Step 606000
Ar 3.388121e-01 0.000000e+00 0.000000e+00
1
Step 607000
Ar 2.736947e-01 0.000000e+00 0.000000e+00
1
Step 608000
Ar 2.916381e-01 0.000000e+00 0.000000e+00
1
Step 609000
Ar 2.938878e-01 0.000000e+00 0.000000e+00
1
Step 610000
Ar 3.687453e-01 0.000000e+00 0.000000e+00
1
Step 611000
Ar 3.533563e-01 0.000000e+00 0.000000e+00
1
Step 612000
Ar 2.107057e-01 0.000000e+00 0.000000e+00
1
Step 613000
Ar 2.351351e-01 0.000000e+00 0.000000e+00
1
Step 614000
Ar 1.191313e-02 0.000000e+00 0.000000e+00
1
Step 615000
Ar 9.442796e-02 0.000000e+00 0.000000e+00
1
Step 616000
Ar 1.111902e-01 0.000000e+00 0.000000e+00
1
Step 617000
Ar 4.687129e-02 0.000000e+00 0.000000e+00
1
Step 618000
Ar 5.871178e-02 0.000000e+00 0.000000e+00
1
Step 619000
Ar -2.090487e-01 0.000000e+00 0.000000e+00
1
Step 620000
Ar -2.909184e-01 0.000000e+00 0.000000e+00
1
Step 621000
Ar -2.433049e-01 0.000000e+00 0.000000e+00
1
Step 622000
Ar -2.616759e-01 0.000000e+00 0.000000e+00
1
Step 623000
Ar -1.485776e-01 0.000000e+00 0.000000e+00
1
Step 624000
Ar -1.873779e-01 0.000000e+00 0.000000e+00
1
Step 625000
Ar -4.764469e-01 0.000000e+00 0.000000e+00
1
Step 626000
Ar -3.641869e-01 0.000000e+00 0.000000e+00
1
Step 627000
Ar -3.208321e-01 0.000000e+00 0.000000e+00
1
Step 628000
Ar -3.876268e-01 0.000000e+00 0.000000e+00
1
Step 629000
Ar -5.709039e-01 0.000000e+00 0.000000e+00
1
Step 630000
Ar -5.837169e-01 0.000000e+00 0.000000e+00
1
Step 631000
Ar -7.028902e-01 0.000000e+00 0.000000e+00
1
Step 632000
Ar -6.947220e-01 0.000000e+00 0.000000e+00
1
Step 633000
Ar -6.741379e-01 0.000000e+00 0.000000e+00
1
Step 634000
Ar -7.305103e-01 0.000000e+00 0.000000e+00
1
Step 635000
Ar -6.648850e-01 0.000000e+00 0.000000e+00
1
Step 636000
Ar -7.252248e-01 0.000000e+00 0.000000e+00
1
Step 637000
Ar -6.875086e-01 0.000000e+00 0.000000e+00
1
Step 638000
Ar -6.528592e-01 0.000000e+00 0.000000e+00
1
Step 639000
Ar -4.298713e-01 0.000000e+00 0.000000e+00
1
Step 640000
Ar -4.557454e-01 0.000000e+00 0.000000e+00
1
Step 641000
Ar -5.320504e-01 0.000000e+00 0.000000e+00
1
Step 642000
Ar -4.338033e-01 0.000000e+00 0.000000e+00
1
Step 643000
Ar -1.123843e+00 0.000000e+00 0.000000e+00
1
Step 644000
Ar -1.157798e+00 0.000000e+00 0.000000e+00
1
Step 645000
Ar -1.139253e+00 0.000000e+00 0.000000e+00
1
Step 646000
Ar -8.631880e-01 0.000000e+00 0.000000e+00
1
Step 647000
Ar -8.294421e-01 0.000000e+00 0.000000e+00
1
Step 648000
Ar -7.749784e-01 0.000000e+00 0.000000e+00
1
Step 649000