1
Step 120000
Ar 9.983263e-01 0.000000e+00 0.000000e+00
1
Step 121000
Ar 9.986196e-01 0.000000e+00 0.000000e+00
1
Step 122000
Ar 1.009964e+00 0.000000e+00 0.000000e+00
1
Step 123000
Ar 1.007427e+00 0.000000e+00 0.000000e+00
1
Step 124000
Ar 1.018338e+00 0.000000e+00 0.000000e+00
1
Step 125000
Ar 1.006676e+00 0.000000e+00 0.000000e+00
1
Step 126000
Ar 1.046973e+00 0.000000e+00 0.000000e+00
1
Step 127000
Ar 1.032823e+00 0.000000e+00 0.000000e+00
1
Step 128000
Ar 1.045111e+00 0.000000e+00 0.000000e+00
1
Step 129000
Ar 1.035640e+00 0.000000e+00 0.000000e+00
1
Step 130000
Ar 9.752196e-01 0.000000e+00 0.000000e+00
1
Step 131000
Ar 1.050613e+00 0.000000e+00 0.000000e+00
1
Step 132000
Ar 1.052612e+00 0.000000e+00 0.000000e+00
1
Step 133000
Ar 9.753619e-01 0.000000e+00 0.000000e+00
1
Step 134000
Ar 1.000890e+00 0.000000e+00 0.000000e+00
1
Step 135000
Ar 9.459421e-01 0.000000e+00 0.000000e+00
1
Step 136000
Ar 1.064359e+00 0.000000e+00 0.000000e+00
1
Step 137000
Ar 1.066068e+00 0.000000e+00 0.000000e+00
1
Step 138000
Ar 1.067479e+00 0.000000e+00 0.000000e+00
1
Step 139000
Ar 1.062575e+00 0.000000e+00 0.000000e+00
1
Step 140000
Ar 9.230842e-01 0.000000e+00 0.000000e+00
1
Step 141000
Ar 9.383901e-01 0.000000e+00 0.000000e+00
1
Step 142000
Ar 9.157974e-01 0.000000e+00 0.000000e+00
1
Step 143000
Ar 9.202984e-01 0.000000e+00 0.000000e+00
1
Step 144000
Ar 9.398030e-01 0.000000e+00 0.000000e+00
1
Step 145000
Ar 9.424287e-01 0.000000e+00 0.000000e+00
1
Step 146000
Ar 9.600335e-01 0.000000e+00 0.000000e+00
1
Step 147000
Ar 9.459405e-01 0.000000e+00 0.000000e+00
1
Step 148000
Ar 1.068518e+00 0.000000e+00 0.000000e+00
1
Step 149000
Ar 9.144013e-01 0.000000e+00 0.000000e+00
1
Step 150000
Ar 9.114125e-01 0.000000e+00 0.000000e+00
1
Step 151000
Ar 9.151156e-01 0.000000e+00 0.000000e+00
1
Step 152000
Ar 1.024023e+00 0.000000e+00 0.000000e+00
1
Step 153000
Ar 1.043017e+00 0.000000e+00 0.000000e+00
1
Step 154000
Ar 8.785078e-01 0.000000e+00 0.000000e+00
1
Step 155000
Ar 9.347635e-01 0.000000e+00 0.000000e+00
1
Step 156000
Ar 1.014175e+00 0.000000e+00 0.000000e+00
1
Step 157000
Ar 9.676131e-01 0.000000e+00 0.000000e+00
1
Step 158000
Ar 1.173052e+00 0.000000e+00 0.000000e+00
1
Step 159000
Ar 1.063511e+00 0.000000e+00 0.000000e+00
1
Step 160000
Ar 9.188096e-01 0.000000e+00 0.000000e+00
1
Step 161000
Ar 9.792778e-01 0.000000e+00 0.000000e+00
1
Step 162000
Ar 9.834382e-01 0.000000e+00 0.000000e+00
1
Step 163000
Ar 9.776734e-01 0.000000e+00 0.000000e+00
1
Step 164000
Ar 9.978563e-01 0.000000e+00 0.000000e+00
1
Step 165000
Ar 1.061649e+00 0.000000e+00 0.000000e+00
1
Step 166000
Ar 1.029041e+00 0.000000e+00 0.000000e+00
1
Step 167000
Ar 1.084399e+00 0.000000e+00 0.000000e+00
1
Step 168000
Ar 1.082367e+00 0.000000e+00 0.000000e+00
1
Step 169000
Ar 1.081341e+00 0.000000e+00 0.000000e+00
1
Step 170000
Ar 1.077397e+00 0.000000e+00 0.000000e+00
1
Step 171000
Ar 1.080005e+00 0.000000e+00 0.000000e+00
1
Step 172000
Ar 1.078137e+00 0.000000e+00 0.000000e+00
1
Step 173000
Ar 1.087132e+00 0.000000e+00 0.000000e+00
1
Step 174000
Ar 9.791338e-01 0.000000e+00 0.000000e+00
1
Step 175000
Ar 9.068583e-01 0.000000e+00 0.000000e+00
1
Step 176000
Ar 9.092201e-01 0.000000e+00 0.000000e+00
1
Step 177000
Ar 9.084392e-01 0.000000e+00 0.000000e+00
1
Step 178000
Ar 9.050470e-01 0.000000e+00 0.000000e+00
1
Step 179000
Ar 9.074564e-01 0.000000e+00 0.000000e+00
1
Step 180000
Ar 9.063726e-01 0.000000e+00 0.000000e+00
1
Step 181000
Ar 9.082735e-01 0.000000e+00 0.000000e+00
1
Step 182000
Ar 9.783087e-01 0.000000e+00 0.000000e+00
1
Step 183000
Ar 9.782376e-01 0.000000e+00 0.000000e+00
1
Step 184000
Ar 9.764707e-01 0.000000e+00 0.000000e+00
1
Step 185000
Ar 9.005140e-01 0.000000e+00 0.000000e+00
1
Step 186000
Ar 9.042283e-01 0.000000e+00 0.000000e+00
1
Step 187000
Ar 9.003315e-01 0.000000e+00 0.000000e+00
1
Step 188000
Ar 9.059533e-01 0.000000e+00 0.000000e+00
1
Step 189000
Ar 9.085786e-01 0.000000e+00 0.000000e+00
1
Step 190000
Ar 9.044290e-01 0.000000e+00 0.000000e+00
1
Step 191000
Ar 1.101637e+00 0.000000e+00 0.000000e+00
1
Step 192000
Ar 9.117128e-01 0.000000e+00 0.000000e+00
1
Step 193000
Ar 1.089705e+00 0.000000e+00 0.000000e+00
1
Step 194000
Ar 1.092047e+00 0.000000e+00 0.000000e+00
1
Step 195000
Ar 1.091547e+00 0.000000e+00 0.000000e+00
1
Step 196000
Ar 1.092218e+00 0.000000e+00 0.000000e+00
1
Step 197000
Ar 1.087560e+00 0.000000e+00 0.000000e+00
1
Step 198000
Ar 1.089031e+00 0.000000e+00 0.000000e+00
1
Step 199000
Ar 1.092851e+00 0.000000e+00 0.000000e+00
1
Step 200000
Ar 1.088849e+00 0.000000e+00 0.000000e+00
1
Step 201000
Ar 1.086804e+00 0.000000e+00 0.000000e+00
1
Step 202000
Ar 1.049787e+00 0.000000e+00 0.000000e+00
1
Step 203000
Ar 8.921668e-01 0.000000e+00 0.000000e+00
1
Step 204000
Ar 1.018665e+00 0.000000e+00 0.000000e+00
1
Step 205000
Ar 8.911557e-01 0.000000e+00 0.000000e+00
1
Step 206000
Ar 8.858081e-01 0.000000e+00 0.000000e+00
1
Step 207000
Ar 8.899767e-01 0.000000e+00 0.000000e+00
1
Step 208000
Ar 8.939680e-01 0.000000e+00 0.000000e+00
1
Step 209000
Ar 8.933080e-01 0.000000e+00 0.000000e+00
1
Step 210000
Ar 8.914065e-01 0.000000e+00 0.000000e+00
1
Step 211000
Ar 8.883259e-01 0.000000e+00 0.000000e+00
1
Step 212000
Ar 8.817155e-01 0.000000e+00 0.000000e+00
1
Step 213000
Ar 8.887411e-01 0.000000e+00 0.000000e+00
1
Step 214000
Ar 8.855290e-01 0.000000e+00 0.000000e+00
1
Step 215000
Ar 8.854098e-01 0.000000e+00 0.000000e+00
1
Step 216000
Ar 8.836925e-01 0.000000e+00 0.000000e+00
1
Step 217000
Ar 8.872941e-01 0.000000e+00 0.000000e+00
1
Step 218000
Ar 8.902583e-01 0.000000e+00 0.000000e+00
1
Step 219000
Ar 8.863734e-01 0.000000e+00 0.000000e+00
1
Step 220000
Ar 9.961271e-01 0.000000e+00 0.000000e+00
1
Step 221000
Ar 9.918850e-01 0.000000e+00 0.000000e+00
1
Step 222000
Ar 9.970116e-01 0.000000e+00 0.000000e+00
1
Step 223000
Ar 9.939575e-01 0.000000e+00 0.000000e+00
1
Step 224000
Ar 9.662194e-01 0.000000e+00 0.000000e+00
1
Step 225000
Ar 9.915316e-01 0.000000e+00 0.000000e+00
1
Step 226000
Ar 1.094497e+00 0.000000e+00 0.000000e+00
1
Step 227000
Ar 1.101238e+00 0.000000e+00 0.000000e+00
1
Step 228000
Ar 1.098745e+00 0.000000e+00 0.000000e+00
1
Step 229000
Ar 1.099621e+00 0.000000e+00 0.000000e+00
1
Step 230000
Ar 1.101052e+00 0.000000e+00 0.000000e+00
1
Step 231000
Ar 1.101851e+00 0.000000e+00 0.000000e+00
1
Step 232000
Ar 1.100002e+00 0.000000e+00 0.000000e+00
1
Step 233000
Ar 1.099082e+00 0.000000e+00 0.000000e+00
1
Step 234000
Ar 1.096072e+00 0.000000e+00 0.000000e+00
1
Step 235000
Ar 1.102409e+00 0.000000e+00 0.000000e+00
1
Step 236000
Ar 1.100835e+00 0.000000e+00 0.000000e+00
1
Step 237000
Ar 1.033280e+00 0.000000e+00 0.000000e+00
1
Step 238000
Ar 9.367300e-01 0.000000e+00 0.000000e+00
1
Step 239000
Ar 9.908310e-01 0.000000e+00 0.000000e+00
1
Step 240000
Ar 9.806958e-01 0.000000e+00 0.000000e+00
1
Step 241000
Ar 9.939696e-01 0.000000e+00 0.000000e+00
1
Step 242000
Ar 9.911985e-01 0.000000e+00 0.000000e+00
1
Step 243000
Ar 9.834021e-01 0.000000e+00 0.000000e+00
1
Step 244000
Ar 9.611522e-01 0.000000e+00 0.000000e+00
1
Step 245000
Ar 9.630333e-01 0.000000e+00 0.000000e+00
1
Step 246000
Ar 9.576330e-01 0.000000e+00 0.000000e+00
1
Step 247000
Ar 9.462300e-01 0.000000e+00 0.000000e+00
1
Step 248000
Ar 9.501751e-01 0.000000e+00 0.000000e+00
1
Step 249000
Ar 9.636462e-01 0.000000e+00 0.000000e+00
1
Step 250000
Ar 9.658140e-01 0.000000e+00 0.000000e+00
1
Step 251000
Ar 9.736353e-01 0.000000e+00 0.000000e+00
1
Step 252000
Ar 9.426459e-01 0.000000e+00 0.000000e+00
1
Step 253000
Ar 9.684315e-01 0.000000e+00 0.000000e+00
1
Step 254000
Ar 8.796628e-01 0.000000e+00 0.000000e+00
1
Step 255000
Ar 8.780529e-01 0.000000e+00 0.000000e+00
1
Step 256000
Ar 8.795535e-01 0.000000e+00 0.000000e+00
1
Step 257000
Ar 8.749638e-01 0.000000e+00 0.000000e+00
1
Step 258000
Ar 8.829741e-01 0.000000e+00 0.000000e+00
1
Step 259000
Ar 9.870169e-01 0.000000e+00 0.000000e+00
1
Step 260000
Ar 9.766157e-01 0.000000e+00 0.000000e+00
1
Step 261000
Ar 9.894658e-01 0.000000e+00 0.000000e+00
1
Step 262000
Ar 9.400269e-01 0.000000e+00 0.000000e+00
1
Step 263000
Ar 1.026935e+00 0.000000e+00 0.000000e+00
1
Step 264000
Ar 1.099985e+00 0.000000e+00 0.000000e+00
1
Step 265000
Ar 1.102423e+00 0.000000e+00 0.000000e+00
1
Step 266000
Ar 9.260199e-01 0.000000e+00 0.000000e+00
1
Step 267000
Ar 1.112838e+00 0.000000e+00 0.000000e+00
1
Step 268000
Ar 9.727025e-01 0.000000e+00 0.000000e+00
1
Step 269000
Ar 9.405555e-01 0.000000e+00 0.000000e+00
1
Step 270000
Ar 9.333883e-01 0.000000e+00 0.000000e+00
1
Step 271000
Ar 1.099736e+00 0.000000e+00 0.000000e+00
1
Step 272000
Ar 9.358423e-01 0.000000e+00 0.000000e+00
1
Step 273000
Ar 9.381899e-01 0.000000e+00 0.000000e+00
1
Step 274000
Ar 9.805744e-01 0.000000e+00 0.000000e+00
1
Step 275000
Ar 7.739913e-01 0.000000e+00 0.000000e+00
1
Step 276000
Ar 9.324533e-01 0.000000e+00 0.000000e+00
1
Step 277000
Ar 9.240296e-01 0.000000e+00 0.000000e+00
1
Step 278000
Ar 1.117901e+00 0.000000e+00 0.000000e+00
1
Step 279000
Ar 1.116879e+00 0.000000e+00 0.000000e+00
1
Step 280000
Ar 9.796791e-01 0.000000e+00 0.000000e+00
1
Step 281000
Ar 1.042513e+00 0.000000e+00 0.000000e+00
1
Step 282000
Ar 8.533865e-01 0.000000e+00 0.000000e+00
1
Step 283000
Ar 8.550641e-01 0.000000e+00 0.000000e+00
1
Step 284000
Ar 8.543990e-01 0.000000e+00 0.000000e+00
1
Step 285000
Ar 8.552422e-01 0.000000e+00 0.000000e+00
1
Step 286000
Ar 8.541723e-01 0.000000e+00 0.000000e+00
1
Step 287000
Ar 8.565906e-01 0.000000e+00 0.000000e+00
1
Step 288000
Ar 8.550738e-01 0.000000e+00 0.000000e+00
1
Step 289000
Ar 8.541156e-01 0.000000e+00 0.000000e+00
1
Step 290000
Ar 8.544696e-01 0.000000e+00 0.000000e+00
1
Step 291000
Ar 8.543771e-01 0.000000e+00 0.000000e+00
1
Step 292000
Ar 8.555905e-01 0.000000e+00 0.000000e+00
1
Step 293000
Ar 8.433198e-01 0.000000e+00 0.000000e+00
1
Step 294000
Ar 9.621575e-01 0.000000e+00 0.000000e+00
1
Step 295000
Ar 9.885959e-01 0.000000e+00 0.000000e+00
1
Step 296000
Ar 8.356367e-01 0.000000e+00 0.000000e+00
1
Step 297000
Ar 8.377833e-01 0.000000e+00 0.000000e+00
1
Step 298000
Ar 8.351145e-01 0.000000e+00 0.000000e+00
1
Step 299000
Ar 8.273915e-01 0.000000e+00 0.000000e+00
1
Step 300000
Ar 7.902060e-01 0.000000e+00 0.000000e+00
1
Step 301000
Ar 8.287898e-01 0.000000e+00 0.000000e+00
1
Step 302000
Ar 1.165374e+00 0.000000e+00 0.000000e+00
1
Step 303000
Ar 8.363225e-01 0.000000e+00 0.000000e+00
1
Step 304000
Ar 8.579320e-01 0.000000e+00 0.000000e+00
1
Step 305000
Ar 1.044757e+00 0.000000e+00 0.000000e+00
1
Step 306000
Ar 1.217524e+00 0.000000e+00 0.000000e+00
1
Step 307000
Ar 8.321953e-01 0.000000e+00 0.000000e+00
1
Step 308000
Ar 8.311923e-01 0.000000e+00 0.000000e+00
1
Step 309000
Ar 8.292114e-01 0.000000e+00 0.000000e+00
1
Step 310000
Ar 7.868702e-01 0.000000e+00 0.000000e+00
1
Step 311000
Ar 1.051088e+00 0.000000e+00 0.000000e+00
1
Step 312000
Ar 9.365724e-01 0.000000e+00 0.000000e+00
1
Step 313000
Ar 8.278514e-01 0.000000e+00 0.000000e+00
1
Step 314000
Ar 1.208463e+00 0.000000e+00 0.000000e+00
1
Step 315000
Ar 8.832382e-01 0.000000e+00 0.000000e+00
1
Step 316000
Ar 8.957135e-01 0.000000e+00 0.000000e+00
1
Step 317000
Ar 8.673891e-01 0.000000e+00 0.000000e+00
1
Step 318000
Ar 1.010154e+00 0.000000e+00 0.000000e+00
1
Step 319000
Ar 1.104134e+00 0.000000e+00 0.000000e+00
1
Step 320000
Ar 1.116475e+00 0.000000e+00 0.000000e+00
1
Step 321000
Ar 8.073113e-01 0.000000e+00 0.000000e+00
1
Step 322000
Ar 1.135714e+00 0.000000e+00 0.000000e+00
1
Step 323000
Ar 8.847875e-01 0.000000e+00 0.000000e+00
1
Step 324000
Ar 1.109942e+00 0.000000e+00 0.000000e+00
1
Step 325000
Ar 6.583951e-01 0.000000e+00 0.000000e+00
1
Step 326000
Ar 1.058980e+00 0.000000e+00 0.000000e+00
1
Step 327000
Ar 9.095880e-01 0.000000e+00 0.000000e+00
1
Step 328000
Ar 1.217017e+00 0.000000e+00 0.000000e+00
1
Step 329000
Ar 1.027886e+00 0.000000e+00 0.000000e+00
1
Step 330000
Ar 1.187546e+00 0.000000e+00 0.000000e+00
1
Step 331000
Ar 9.843068e-01 0.000000e+00 0.000000e+00
1
Step 332000
Ar 9.330064e-01 0.000000e+00 0.000000e+00
1
Step 333000
Ar 8.233784e-01 0.000000e+00 0.000000e+00
1
Step 334000
Ar 1.110922e+00 0.000000e+00 0.000000e+00
1
Step 335000
Ar 1.199969e+00 0.000000e+00 0.000000e+00
1
Step 336000
Ar 8.724606e-01 0.000000e+00 0.000000e+00
1
Step 337000
Ar 1.140633e+00 0.000000e+00 0.000000e+00
1
Step 338000
Ar 8.948995e-01 0.000000e+00 0.000000e+00
1
Step 339000
Ar 8.388965e-01 0.000000e+00 0.000000e+00
1
Step 340000
Ar 1.077714e+00 0.000000e+00 0.000000e+00
1
Step 341000
Ar 9.950498e-01 0.000000e+00 0.000000e+00
1
Step 342000
Ar 8.546719e-01 0.000000e+00 0.000000e+00
1
Step 343000
Ar 8.797063e-01 0.000000e+00 0.000000e+00
1
Step 344000
Ar 1.117007e+00 0.000000e+00 0.000000e+00
1
Step 345000
Ar 9.324035e-01 0.000000e+00 0.000000e+00
1
Step 346000
Ar 1.054188e+00 0.000000e+00 0.000000e+00
1
Step 347000
Ar 8.255214e-01 0.000000e+00 0.000000e+00
1
Step 348000
Ar 8.753039e-01 0.000000e+00 0.000000e+00
1
Step 349000
Ar 1.003825e+00 0.000000e+00 0.000000e+00
1
Step 350000
Ar 7.928244e-01 0.000000e+00 0.000000e+00
1
Step 351000
Ar 8.893982e-01 0.000000e+00 0.000000e+00
1
Step 352000
Ar 1.099831e+00 0.000000e+00 0.000000e+00
1
Step 353000
Ar 7.452274e-01 0.000000e+00 0.000000e+00
1
Step 354000
Ar 9.487927e-01 0.000000e+00 0.000000e+00
1
Step 355000
Ar 9.730090e-01 0.000000e+00 0.000000e+00
1
Step 356000
Ar 8.198957e-01 0.000000e+00 0.000000e+00
1
Step 357000
Ar 1.123123e+00 0.000000e+00 0.000000e+00
1
Step 358000
Ar 9.543174e-01 0.000000e+00 0.000000e+00
1
Step 359000
Ar 8.639148e-01 0.000000e+00 0.000000e+00
1
Step 360000
Ar 9.366902e-01 0.000000e+00 0.000000e+00
1
Step 361000
Ar 1.008187e+00 0.000000e+00 0.000000e+00
1
Step 362000
Ar 9.822260e-01 0.000000e+00 0.000000e+00
1
Step 363000
Ar 8.806150e-01 0.000000e+00 0.000000e+00
1
Step 364000
Ar 9.084392e-01 0.000000e+00 0.000000e+00
1
Step 365000
Ar 1.048704e+00 0.000000e+00 0.000000e+00
1
Step 366000
Ar 9.686753e-01 0.000000e+00 0.000000e+00
1
Step 367000
Ar 9.254844e-01 0.000000e+00 0.000000e+00
1
Step 368000
Ar 9.254457e-01 0.000000e+00 0.000000e+00
1
Step 369000
Ar 1.035643e+00 0.000000e+00 0.000000e+00
1
Step 370000
Ar 1.042354e+00 0.000000e+00 0.000000e+00
1
Step 371000
Ar 1.040572e+00 0.000000e+00 0.000000e+00
1
Step 372000
Ar 1.042779e+00 0.000000e+00 0.000000e+00
1
Step 373000
Ar 1.053500e+00 0.000000e+00 0.000000e+00
1
Step 374000
Ar 1.052111e+00 0.000000e+00 0.000000e+00
1
Step 375000
Ar 1.133944e+00 0.000000e+00 0.000000e+00
1
Step 376000
Ar 8.115473e-01 0.000000e+00 0.000000e+00
1
Step 377000
Ar 1.072305e+00 0.000000e+00 0.000000e+00
1
Step 378000
Ar 1.193391e+00 0.000000e+00 0.000000e+00
1
Step 379000
Ar 8.947891e-01 0.000000e+00 0.000000e+00
1
Step 380000
Ar 9.745162e-01 0.000000e+00 0.000000e+00
1
Step 381000
Ar 9.402196e-01 0.000000e+00 0.000000e+00
1
Step 382000
Ar 8.229031e-01 0.000000e+00 0.000000e+00
1
Step 383000
Ar 9.106244e-01 0.000000e+00 0.000000e+00
1
Step 384000
Ar 1.143193e+00 0.000000e+00 0.000000e+00
1
Step 385000
Ar 9.356047e-01 0.000000e+00 0.000000e+00
1
Step 386000
Ar 1.067710e+00 0.000000e+00 0.000000e+00
1
Step 387000
Ar 1.069668e+00 0.000000e+00 0.000000e+00
1
Step 388000
Ar 1.066252e+00 0.000000e+00 0.000000e+00
1
Step 389000
Ar 1.068378e+00 0.000000e+00 0.000000e+00
1
Step 390000
Ar 1.064455e+00 0.000000e+00 0.000000e+00
1
Step 391000
Ar 1.068350e+00 0.000000e+00 0.000000e+00
1
Step 392000
Ar 1.067513e+00 0.000000e+00 0.000000e+00
1
Step 393000
Ar 5.648284e-01 0.000000e+00 0.000000e+00
1
Step 394000
Ar 8.541032e-01 0.000000e+00 0.000000e+00
1
Step 395000
Ar 1.137976e+00 0.000000e+00 0.000000e+00
1
Step 396000
Ar 7.129236e-01 0.000000e+00 0.000000e+00
1
Step 397000
Ar 6.821771e-01 0.000000e+00 0.000000e+00
1
Step 398000
Ar 8.147407e-01 0.000000e+00 0.000000e+00
1
Step 399000
Ar 8.140493e-01 0.000000e+00 0.000000e+00
1
Step 400000
Ar 8.145588e-01 0.000000e+00 0.000000e+00
1
Step 401000
Ar 1.075278e+00 0.000000e+00 0.000000e+00
1
Step 402000
Ar 9.767462e-01 0.000000e+00 0.000000e+00
1
Step 403000
Ar 7.057343e-01 0.000000e+00 0.000000e+00
1
Step 404000
Ar 8.002246e-01 0.000000e+00 0.000000e+00
1
Step 405000
Ar 1.163022e+00 0.000000e+00 0.000000e+00
1
Step 406000
Ar 8.251889e-01 0.000000e+00 0.000000e+00
1
Step 407000
Ar 1.065242e+00 0.000000e+00 0.000000e+00
1
Step 408000
Ar 1.066214e+00 0.000000e+00 0.000000e+00
1
Step 409000
Ar 1.060015e+00 0.000000e+00 0.000000e+00
1
Step 410000
Ar 1.066419e+00 0.000000e+00 0.000000e+00
1
Step 411000
Ar 1.065607e+00 0.000000e+00 0.000000e+00
1
Step 412000
Ar 8.365089e-01 0.000000e+00 0.000000e+00
1
Step 413000
Ar 8.098781e-01 0.000000e+00 0.000000e+00
1
Step 414000
Ar 8.149815e-01 0.000000e+00 0.000000e+00
1
Step 415000
Ar 8.170579e-01 0.000000e+00 0.000000e+00
1
Step 416000
Ar 8.120360e-01 0.000000e+00 0.000000e+00
1
Step 417000
Ar 8.153198e-01 0.000000e+00 0.000000e+00
1
Step 418000
Ar 8.133417e-01 0.000000e+00 0.000000e+00
1
Step 419000
Ar 8.160671e-01 0.000000e+00 0.000000e+00
1
Step 420000
Ar 7.953328e-01 0.000000e+00 0.000000e+00
1
Step 421000
Ar 1.017709e+00 0.000000e+00 0.000000e+00
1
Step 422000
Ar 7.743830e-01 0.000000e+00 0.000000e+00
1
Step 423000
Ar 1.094027e+00 0.000000e+00 0.000000e+00
1
Step 424000
Ar 1.106753e+00 0.000000e+00 0.000000e+00
1
Step 425000
Ar 1.015319e+00 0.000000e+00 0.000000e+00
1
Step 426000
Ar 1.093600e+00 0.000000e+00 0.000000e+00
1
Step 427000
Ar 9.556808e-01 0.000000e+00 0.000000e+00
1
Step 428000
Ar 7.954067e-01 0.000000e+00 0.000000e+00
1
Step 429000
Ar 7.886238e-01 0.000000e+00 0.000000e+00
1
Step 430000
Ar 6.734255e-01 0.000000e+00 0.000000e+00
1
Step 431000
Ar 1.165473e+00 0.000000e+00 0.000000e+00
1
Step 432000
Ar 1.095043e+00 0.000000e+00 0.000000e+00
1
Step 433000
Ar 9.500751e-01 0.000000e+00 0.000000e+00
1
Step 434000
Ar 9.954694e-01 0.000000e+00 0.000000e+00
1
Step 435000
Ar 1.121220e+00 0.000000e+00 0.000000e+00
1
Step 436000
Ar 8.741426e-01 0.000000e+00 0.000000e+00
1
Step 437000
Ar 7.389002e-01 0.000000e+00 0.000000e+00
1
Step 438000
Ar 1.134524e+00 0.000000e+00 0.000000e+00
1
Step 439000
Ar 8.737104e-01 0.000000e+00 0.000000e+00
1
Step 440000
Ar 9.746458e-01 0.000000e+00 0.000000e+00
1
Step 441000
Ar 9.841365e-01 0.000000e+00 0.000000e+00
1
Step 442000
Ar 9.708434e-01 0.000000e+00 0.000000e+00
1
Step 443000
Ar 9.752050e-01 0.000000e+00 0.000000e+00
1
Step 444000
Ar 9.742345e-01 0.000000e+00 0.000000e+00
1
Step 445000
Ar 9.733646e-01 0.000000e+00 0.000000e+00
1
Step 446000
Ar 9.759911e-01 0.000000e+00 0.000000e+00
1
Step 447000
Ar 9.787649e-01 0.000000e+00 0.000000e+00
1
Step 448000
Ar 9.779880e-01 0.000000e+00 0.000000e+00
1
Step 449000
Ar 9.902005e-01 0.000000e+00 0.000000e+00
1
Step 450000
Ar 9.627492e-01 0.000000e+00 0.000000e+00
1
Step 451000
Ar -3.404472e-01 0.000000e+00 0.000000e+00
1
Step 452000
Ar -1.003199e+00 0.000000e+00 0.000000e+00
1
Step 453000
Ar -9.877074e-01 0.000000e+00 0.000000e+00
1
Step 454000
Ar -9.592944e-01 0.000000e+00 0.000000e+00
1
Step 455000
Ar -9.656013e-01 0.000000e+00 0.000000e+00
1
Step 456000
Ar -9.709051e-01 0.000000e+00 0.000000e+00
1
Step 457000
Ar -9.743203e-01 0.000000e+00 0.000000e+00
1
Step 458000
Ar -9.714506e-01 0.000000e+00 0.000000e+00
1
Step 459000
Ar -9.677685e-01 0.000000e+00 0.000000e+00
1
Step 460000
Ar -9.699955e-01 0.000000e+00 0.000000e+00
1
Step 461000
Ar -9.712136e-01 0.000000e+00 0.000000e+00
1
Step 462000
Ar -9.631673e-01 0.000000e+00 0.000000e+00
1
Step 463000
Ar -9.678796e-01 0.000000e+00 0.000000e+00
1
Step 464000
Ar -9.529896e-01 0.000000e+00 0.000000e+00
1
Step 465000
Ar -9.558754e-01 0.000000e+00 0.000000e+00
1
Step 466000
Ar -9.524533e-01 0.000000e+00 0.000000e+00
1
Step 467000
Ar -9.584635e-01 0.000000e+00 0.000000e+00
1
Step 468000
Ar -9.563846e-01 0.000000e+00 0.000000e+00
1
Step 469000
Ar -9.587390e-01 0.000000e+00 0.000000e+00
1
Step 470000
Ar -1.026578e+00 0.000000e+00 0.000000e+00
1
Step 471000
Ar -1.011415e+00 0.000000e+00 0.000000e+00
1
Step 472000
Ar -9.929073e-01 0.000000e+00 0.000000e+00
1
Step 473000
Ar -1.058113e+00 0.000000e+00 0.000000e+00
1
Step 474000
Ar -1.035216e+00 0.000000e+00 0.000000e+00
1
Step 475000
Ar -1.033240e+00 0.000000e+00 0.000000e+00
1
Step 476000
Ar -1.038550e+00 0.000000e+00 0.000000e+00
1
Step 477000
Ar -1.034432e+00 0.000000e+00 0.000000e+00
1
Step 478000
Ar -1.036537e+00 0.000000e+00 0.000000e+00
1
Step 479000
Ar -1.035760e+00 0.000000e+00 0.000000e+00
1
Step 480000
Ar -9.343061e-01 0.000000e+00 0.000000e+00
1
Step 481000
Ar -9.422670e-01 0.000000e+00 0.000000e+00
1
Step 482000
Ar -9.332937e-01 0.000000e+00 0.000000e+00
1
Step 483000
Ar -9.415684e-01 0.000000e+00 0.000000e+00
1
Step 484000
Ar -9.305514e-01 0.000000e+00 0.000000e+00
1
Step 485000
Ar -9.320603e-01 0.000000e+00 0.000000e+00
1
Step 486000
Ar -9.315282e-01 0.000000e+00 0.000000e+00
1
Step 487000
Ar -9.269865e-01 0.000000e+00 0.000000e+00
1
Step 488000
Ar -1.136140e+00 0.000000e+00 0.000000e+00
1
Step 489000
Ar -9.606325e-01 0.000000e+00 0.000000e+00
1
Step 490000
Ar -1.031562e+00 0.000000e+00 0.000000e+00
1
Step 491000
Ar -1.029237e+00 0.000000e+00 0.000000e+00
1
Step 492000
Ar -1.059496e+00 0.000000e+00 0.000000e+00
1
Step 493000
Ar -1.033400e+00 0.000000e+00 0.000000e+00
1
Step 494000
Ar -1.048018e+00 0.000000e+00 0.000000e+00
1
Step 495000
Ar -1.051131e+00 0.000000e+00 0.000000e+00
1
Step 496000
Ar -1.051372e+00 0.000000e+00 0.000000e+00
1
Step 497000
Ar -1.054751e+00 0.000000e+00 0.000000e+00
1
Step 498000
Ar -1.065467e+00 0.000000e+00 0.000000e+00
1
Step 499000
Ar -1.063906e+00 0.000000e+00 0.000000e+00
1
Step 500000
Ar -1.070397e+00 0.000000e+00 0.000000e+00
1
Step 501000
Ar -1.074336e+00 0.000000e+00 0.000000e+00
1
Step 502000
Ar -1.076559e+00 0.000000e+00 0.000000e+00
1
Step 503000
Ar -1.076064e+00 0.000000e+00 0.000000e+00
1
Step 504000
Ar -9.575463e-01 0.000000e+00 0.000000e+00
1
Step 505000
Ar -9.940415e-01 0.000000e+00 0.000000e+00
1
Step 506000
Ar -1.062203e+00 0.000000e+00 0.000000e+00
1
Step 507000
Ar -9.485662e-01 0.000000e+00 0.000000e+00
1
Step 508000
Ar -1.074473e+00 0.000000e+00 0.000000e+00
1
Step 509000
Ar -1.080589e+00 0.000000e+00 0.000000e+00
1
Step 510000
Ar -1.081853e+00 0.000000e+00 0.000000e+00
1
Step 511000
Ar -1.085051e+00 0.000000e+00 0.000000e+00
1
Step 512000
Ar -1.084005e+00 0.000000e+00 0.000000e+00
1
Step 513000
Ar -1.084507e+00 0.000000e+00 0.000000e+00
1
Step 514000
Ar -1.085849e+00 0.000000e+00 0.000000e+00
1
Step 515000
Ar -1.091018e+00 0.000000e+00 0.000000e+00
1
Step 516000
Ar -1.083934e+00 0.000000e+00 0.000000e+00
1
Step 517000
Ar -1.085060e+00 0.000000e+00 0.000000e+00
1
Step 518000
Ar -1.090815e+00 0.000000e+00 0.000000e+00
1
Step 519000
Ar -1.096232e+00 0.000000e+00 0.000000e+00
1
Step 520000
Ar -9.090963e-01 0.000000e+00 0.000000e+00
1
Step 521000
Ar -1.118268e+00 0.000000e+00 0.000000e+00
1
Step 522000
Ar -1.036963e+00 0.000000e+00 0.000000e+00
1
Step 523000
Ar -1.091472e+00 0.000000e+00 0.000000e+00
1
Step 524000
Ar -1.089801e+00 0.000000e+00 0.000000e+00
1
Step 525000
Ar -1.096711e+00 0.000000e+00 0.000000e+00
1
Step 526000
Ar -1.093401e+00 0.000000e+00 0.000000e+00
1
Step 527000
Ar -1.088699e+00 0.000000e+00 0.000000e+00
1
Step 528000
Ar -1.092283e+00 0.000000e+00 0.000000e+00
1
Step 529000
Ar -1.088611e+00 0.000000e+00 0.000000e+00
1
Step 530000
Ar -1.088349e+00 0.000000e+00 0.000000e+00
1
Step 531000
Ar -1.090692e+00 0.000000e+00 0.000000e+00
1
Step 532000
Ar -1.093422e+00 0.000000e+00 0.000000e+00
1
Step 533000
Ar -1.090092e+00 0.000000e+00 0.000000e+00
1
Step 534000
Ar -1.039430e+00 0.000000e+00 0.000000e+00
1
Step 535000
Ar -1.099059e+00 0.000000e+00 0.000000e+00
1
Step 536000
Ar -1.101354e+00 0.000000e+00 0.000000e+00
1
Step 537000
Ar -1.004381e+00 0.000000e+00 0.000000e+00
1
Step 538000
Ar -9.187717e-01 0.000000e+00 0.000000e+00
1
Step 539000
Ar -1.103184e+00 0.000000e+00 0.000000e+00
1
Step 540000
Ar -1.098320e+00 0.000000e+00 0.000000e+00
1
Step 541000
Ar -1.099940e+00 0.000000e+00 0.000000e+00
1
Step 542000
Ar -1.062356e+00 0.000000e+00 0.000000e+00
1
Step 543000
Ar -9.675654e-01 0.000000e+00 0.000000e+00
1
Step 544000
Ar -9.430303e-01 0.000000e+00 0.000000e+00
1
Step 545000
Ar -9.700905e-01 0.000000e+00 0.000000e+00
1
Step 546000
Ar -9.314737e-01 0.000000e+00 0.000000e+00
1
Step 547000
Ar -9.613821e-01 0.000000e+00 0.000000e+00
1
Step 548000
Ar -9.530646e-01 0.000000e+00 0.000000e+00
1
Step 549000
Ar -1.185923e+00 0.000000e+00 0.000000e+00
1
Step 550000
Ar -9.047342e-01 0.000000e+00 0.000000e+00
1
Step 551000
Ar -9.050700e-01 0.000000e+00 0.000000e+00
1
Step 552000
Ar -9.075324e-01 0.000000e+00 0.000000e+00
1
Step 553000
Ar -8.278173e-01 0.000000e+00 0.000000e+00
1
Step 554000
Ar -9.819231e-01 0.000000e+00 0.000000e+00
1
Step 555000
Ar -1.147759e+00 0.000000e+00 0.000000e+00
1
Step 556000
Ar -8.652437e-01 0.000000e+00 0.000000e+00
1
Step 557000
Ar -8.637393e-01 0.000000e+00 0.000000e+00
1
Step 558000
Ar -8.666522e-01 0.000000e+00 0.000000e+00
1
Step 559000
Ar -8.664030e-01 0.000000e+00 0.000000e+00
1
Step 560000
Ar -1.088312e+00 0.000000e+00 0.000000e+00
1
Step 561000
Ar -1.111574e+00 0.000000e+00 0.000000e+00
1
Step 562000
Ar -8.708062e-01 0.000000e+00 0.000000e+00
1
Step 563000
Ar -9.908093e-01 0.000000e+00 0.000000e+00
1
Step 564000
Ar -1.115566e+00 0.000000e+00 0.000000e+00
1
Step 565000
Ar -1.107602e+00 0.000000e+00 0.000000e+00
1
Step 566000
Ar -1.107499e+00 0.000000e+00 0.000000e+00
1
Step 567000
Ar -8.351829e-01 0.000000e+00 0.000000e+00
1
Step 568000
Ar -1.100672e+00 0.000000e+00 0.000000e+00
1
Step 569000
Ar -9.607835e-01 0.000000e+00 0.000000e+00
1
Step 570000
Ar -8.961811e-01 0.000000e+00 0.000000e+00
1
Step 571000
Ar -8.902210e-01 0.000000e+00 0.000000e+00
1
Step 572000
Ar -8.949147e-01 0.000000e+00 0.000000e+00
1
Step 573000
Ar -9.575716e-01 0.000000e+00 0.000000e+00
1
Step 574000
Ar -1.027565e+00 0.000000e+00 0.000000e+00
1
Step 575000
Ar -8.398989e-01 0.000000e+00 0.000000e+00
1
Step 576000
Ar -1.061637e+00 0.000000e+00 0.000000e+00
1
Step 577000
Ar -1.096626e+00 0.000000e+00 0.000000e+00
1
Step 578000
Ar -1.036186e+00 0.000000e+00 0.000000e+00
1
Step 579000
Ar -7.370877e-01 0.000000e+00 0.000000e+00
1
Step 580000
Ar -1.053534e+00 0.000000e+00 0.000000e+00
1
Step 581000
Ar -8.596290e-01 0.000000e+00 0.000000e+00
1
Step 582000
Ar -8.608479e-01 0.000000e+00 0.000000e+00
1
Step 583000
Ar -8.648291e-01 0.000000e+00 0.000000e+00
1
Step 584000
Ar -8.508290e-01 0.000000e+00 0.000000e+00
1
Step 585000
Ar -8.558977e-01 0.000000e+00 0.000000e+00
1
Step 586000
Ar -8.519518e-01 0.000000e+00 0.000000e+00
1
Step 587000
Ar -8.533997e-01 0.000000e+00 0.000000e+00
1
Step 588000
Ar -1.134221e+00 0.000000e+00 0.000000e+00
1
Step 589000
Ar -1.033472e+00 0.000000e+00 0.000000e+00
1
Step 590000
Ar -1.108804e+00 0.000000e+00 0.000000e+00
1
Step 591000
Ar -1.119991e+00 0.000000e+00 0.000000e+00
1
Step 592000
Ar -1.165545e+00 0.000000e+00 0.000000e+00
1
Step 593000
Ar -9.297672e-01 0.000000e+00 0.000000e+00
1
Step 594000
Ar -8.947025e-01 0.000000e+00 0.000000e+00
1
Step 595000
Ar -8.934284e-01 0.000000e+00 0.000000e+00
1
Step 596000
Ar -8.546475e-01 0.000000e+00 0.000000e+00
1
Step 597000
Ar -8.511740e-01 0.000000e+00 0.000000e+00
1
Step 598000
Ar -8.453555e-01 0.000000e+00 0.000000e+00
1
Step 599000
Ar -8.455728e-01 0.000000e+00 0.000000e+00
1
Step 600000
Ar -8.403160e-01 0.000000e+00 0.000000e+00
1
Step 601000
Ar -8.429728e-01 0.000000e+00 0.000000e+00
1
Step 602000
Ar -8.401358e-01 0.000000e+00 0.000000e+00
1
Step 603000
Ar -8.440903e-01 0.000000e+00 0.000000e+00
1
Step 604000
Ar -8.466979e-01 0.000000e+00 0.000000e+00
1
Step 605000
Ar -1.107683e+00 0.000000e+00 0.000000e+00
1
Step 606000
Ar -6.267575e-01 0.000000e+00 0.000000e+00
1
Step 607000
Ar -9.923257e-01 0.000000e+00 0.000000e+00
1
Step 608000
Ar -1.077369e+00 0.000000e+00 0.000000e+00
1
Step 609000
Ar -8.769457e-01 0.000000e+00 0.000000e+00
1
Step 610000
Ar -8.449301e-01 0.000000e+00 0.000000e+00
1
Step 611000
Ar -1.010517e+00 0.000000e+00 0.000000e+00
1
Step 612000
Ar -7.876612e-01 0.000000e+00 0.000000e+00
1
Step 613000
Ar -6.188282e-01 0.000000e+00 0.000000e+00
1
Step 614000
Ar -1.117947e+00 0.000000e+00 0.000000e+00
1
Step 615000
Ar -8.412186e-01 0.000000e+00 0.000000e+00
1
Step 616000
Ar -8.424433e-01 0.000000e+00 0.000000e+00
1
Step 617000
Ar -8.324111e-01 0.000000e+00 0.000000e+00
1
Step 618000
Ar -8.367462e-01 0.000000e+00 0.000000e+00
1
Step 619000
Ar -8.403267e-01 0.000000e+00 0.000000e+00
1
Step 620000
Ar -8.424530e-01 0.000000e+00 0.000000e+00
1
Step 621000
Ar -1.151766e+00 0.000000e+00 0.000000e+00
1
Step 622000
Ar -9.495474e-01 0.000000e+00 0.000000e+00
1
Step 623000
Ar -8.299818e-01 0.000000e+00 0.000000e+00
1
Step 624000
Ar -9.014911e-01 0.000000e+00 0.000000e+00
1
Step 625000
Ar -8.094033e-01 0.000000e+00 0.000000e+00
1
Step 626000
Ar -8.958726e-01 0.000000e+00 0.000000e+00
1
Step 627000
Ar -1.030217e+00 0.000000e+00 0.000000e+00
1
Step 628000
Ar -8.910050e-01 0.000000e+00 0.000000e+00
1
Step 629000
Ar -8.886499e-01 0.000000e+00 0.000000e+00
1
Step 630000
Ar -9.767072e-01 0.000000e+00 0.000000e+00
1
Step 631000
Ar -1.043496e+00 0.000000e+00 0.000000e+00
1
Step 632000
Ar -1.005292e+00 0.000000e+00 0.000000e+00
1
Step 633000
Ar -1.049256e+00 0.000000e+00 0.000000e+00
1
Step 634000
Ar -1.085516e+00 0.000000e+00 0.000000e+00
1
Step 635000
Ar -1.150644e+00 0.000000e+00 0.000000e+00
1
Step 636000
Ar -1.077724e+00 0.000000e+00 0.000000e+00
1
Step 637000
Ar -8.909021e-01 0.000000e+00 0.000000e+00
1
Step 638000
Ar -1.075292e+00 0.000000e+00 0.000000e+00
1
Step 639000
Ar -1.077884e+00 0.000000e+00 0.000000e+00
1
Step 640000
Ar -1.030159e+00 0.000000e+00 0.000000e+00
1
Step 641000
Ar -7.891892e-01 0.000000e+00 0.000000e+00
1
Step 642000
Ar -1.027697e+00 0.000000e+00 0.000000e+00
1
Step 643000
Ar -1.028907e+00 0.000000e+00 0.000000e+00
1
Step 644000
Ar -9.164170e-01 0.000000e+00 0.000000e+00
1
Step 645000
Ar -8.558722e-01 0.000000e+00 0.000000e+00
1
Step 646000
Ar -1.005548e+00 0.000000e+00 0.000000e+00
1
Step 647000
Ar -9.238443e-01 0.000000e+00 0.000000e+00
1
Step 648000
Ar -8.184190e-01 0.000000e+00 0.000000e+00
1
Step 649000
Ar -8.612849e-01 0.000000e+00 0.000000e+00
1
Step 650000
Ar -9.288814e-01 0.000000e+00 0.000000e+00
1
Step 651000
Ar -9.339496e-01 0.000000e+00 0.000000e+00
1