1
Step 120000
Ar 8.864891e-01 0.000000e+00 0.000000e+00
1
Step 121000
Ar 1.099192e+00 0.000000e+00 0.000000e+00
1
Step 122000
Ar 9.269497e-01 0.000000e+00 0.000000e+00
1
Step 123000
Ar 9.665866e-01 0.000000e+00 0.000000e+00
1
Step 124000
Ar 9.432858e-01 0.000000e+00 0.000000e+00
1
Step 125000
Ar 1.037278e+00 0.000000e+00 0.000000e+00
1
Step 126000
Ar 1.085414e+00 0.000000e+00 0.000000e+00
1
Step 127000
Ar 1.171907e+00 0.000000e+00 0.000000e+00
1
Step 128000
Ar 1.114484e+00 0.000000e+00 0.000000e+00
1
Step 129000
Ar 1.123983e+00 0.000000e+00 0.000000e+00
1
Step 130000
Ar 1.100351e+00 0.000000e+00 0.000000e+00
1
Step 131000
Ar 1.050500e+00 0.000000e+00 0.000000e+00
1
Step 132000
Ar 1.076930e+00 0.000000e+00 0.000000e+00
1
Step 133000
Ar 1.086482e+00 0.000000e+00 0.000000e+00
1
Step 134000
Ar 1.055667e+00 0.000000e+00 0.000000e+00
1
Step 135000
Ar 1.074322e+00 0.000000e+00 0.000000e+00
1
Step 136000
Ar 9.555987e-01 0.000000e+00 0.000000e+00
1
Step 137000
Ar 9.765065e-01 0.000000e+00 0.000000e+00
1
Step 138000
Ar 8.446387e-01 0.000000e+00 0.000000e+00
1
Step 139000
Ar 8.076481e-01 0.000000e+00 0.000000e+00
1
Step 140000
Ar 9.045666e-01 0.000000e+00 0.000000e+00
1
Step 141000
Ar 8.028858e-01 0.000000e+00 0.000000e+00
1
Step 142000
Ar 8.085953e-01 0.000000e+00 0.000000e+00
1
Step 143000
Ar 8.680909e-01 0.000000e+00 0.000000e+00
1
Step 144000
Ar 6.941916e-01 0.000000e+00 0.000000e+00
1
Step 145000
Ar 7.763697e-01 0.000000e+00 0.000000e+00
1
Step 146000
Ar 7.463859e-01 0.000000e+00 0.000000e+00
1
Step 147000
Ar 7.020670e-01 0.000000e+00 0.000000e+00
1
Step 148000
Ar 7.115695e-01 0.000000e+00 0.000000e+00
1
Step 149000
Ar 6.606672e-01 0.000000e+00 0.000000e+00
1
Step 150000
Ar 7.098199e-01 0.000000e+00 0.000000e+00
1
Step 151000
Ar 7.614800e-01 0.000000e+00 0.000000e+00
1
Step 152000
Ar 7.235809e-01 0.000000e+00 0.000000e+00
1
Step 153000
Ar 7.619843e-01 0.000000e+00 0.000000e+00
1
Step 154000
Ar 7.270186e-01 0.000000e+00 0.000000e+00
1
Step 155000
Ar 7.545816e-01 0.000000e+00 0.000000e+00
1
Step 156000
Ar 7.258768e-01 0.000000e+00 0.000000e+00
1
Step 157000
Ar 7.293150e-01 0.000000e+00 0.000000e+00
1
Step 158000
Ar 7.243379e-01 0.000000e+00 0.000000e+00
1
Step 159000
Ar 7.354228e-01 0.000000e+00 0.000000e+00
1
Step 160000
Ar 7.321483e-01 0.000000e+00 0.000000e+00
1
Step 161000
Ar 8.689963e-01 0.000000e+00 0.000000e+00
1
Step 162000
Ar 8.272023e-01 0.000000e+00 0.000000e+00
1
Step 163000
Ar 8.343444e-01 0.000000e+00 0.000000e+00
1
Step 164000
Ar 8.717448e-01 0.000000e+00 0.000000e+00
1
Step 165000
Ar 8.498945e-01 0.000000e+00 0.000000e+00
1
Step 166000
Ar 9.657237e-01 0.000000e+00 0.000000e+00
1
Step 167000
Ar 9.771640e-01 0.000000e+00 0.000000e+00
1
Step 168000
Ar 9.897008e-01 0.000000e+00 0.000000e+00
1
Step 169000
Ar 1.027548e+00 0.000000e+00 0.000000e+00
1
Step 170000
Ar 9.348642e-01 0.000000e+00 0.000000e+00
1
Step 171000
Ar 1.024643e+00 0.000000e+00 0.000000e+00
1
Step 172000
Ar 9.649591e-01 0.000000e+00 0.000000e+00
1
Step 173000
Ar 1.008138e+00 0.000000e+00 0.000000e+00
1
Step 174000
Ar 9.483311e-01 0.000000e+00 0.000000e+00
1
Step 175000
Ar 9.951112e-01 0.000000e+00 0.000000e+00
1
Step 176000
Ar 9.592787e-01 0.000000e+00 0.000000e+00
1
Step 177000
Ar 9.737130e-01 0.000000e+00 0.000000e+00
1
Step 178000
Ar 9.664767e-01 0.000000e+00 0.000000e+00
1
Step 179000
Ar 9.639552e-01 0.000000e+00 0.000000e+00
1
Step 180000
Ar 9.546389e-01 0.000000e+00 0.000000e+00
1
Step 181000
Ar 9.673090e-01 0.000000e+00 0.000000e+00
1
Step 182000
Ar 9.698899e-01 0.000000e+00 0.000000e+00
1
Step 183000
Ar 9.784171e-01 0.000000e+00 0.000000e+00
1
Step 184000
Ar 9.666885e-01 0.000000e+00 0.000000e+00
1
Step 185000
Ar 9.798812e-01 0.000000e+00 0.000000e+00
1
Step 186000
Ar 9.459504e-01 0.000000e+00 0.000000e+00
1
Step 187000
Ar 9.424729e-01 0.000000e+00 0.000000e+00
1
Step 188000
Ar 9.437672e-01 0.000000e+00 0.000000e+00
1
Step 189000
Ar 9.441265e-01 0.000000e+00 0.000000e+00
1
Step 190000
Ar -5.084369e-01 0.000000e+00 0.000000e+00
1
Step 191000
Ar -9.735368e-01 0.000000e+00 0.000000e+00
1
Step 192000
Ar -9.400236e-01 0.000000e+00 0.000000e+00
1
Step 193000
Ar -8.126425e-01 0.000000e+00 0.000000e+00
1
Step 194000
Ar -7.434054e-01 0.000000e+00 0.000000e+00
1
Step 195000
Ar -1.046856e+00 0.000000e+00 0.000000e+00
1
Step 196000
Ar -1.005496e+00 0.000000e+00 0.000000e+00
1
Step 197000
Ar -8.444003e-01 0.000000e+00 0.000000e+00
1
Step 198000
Ar -7.449776e-01 0.000000e+00 0.000000e+00
1
Step 199000
Ar -8.880025e-01 0.000000e+00 0.000000e+00
1
Step 200000
Ar -8.934868e-01 0.000000e+00 0.000000e+00
1
Step 201000
Ar -9.895602e-01 0.000000e+00 0.000000e+00
1
Step 202000
Ar -9.151223e-01 0.000000e+00 0.000000e+00
1
Step 203000
Ar -9.172535e-01 0.000000e+00 0.000000e+00
1
Step 204000
Ar -9.461623e-01 0.000000e+00 0.000000e+00
1
Step 205000
Ar -9.764303e-01 0.000000e+00 0.000000e+00
1
Step 206000
Ar -9.616075e-01 0.000000e+00 0.000000e+00
1
Step 207000
Ar -9.617213e-01 0.000000e+00 0.000000e+00
1
Step 208000
Ar -9.223295e-01 0.000000e+00 0.000000e+00
1
Step 209000
Ar -9.125084e-01 0.000000e+00 0.000000e+00
1
Step 210000
Ar -9.610983e-01 0.000000e+00 0.000000e+00
1
Step 211000
Ar -9.160506e-01 0.000000e+00 0.000000e+00
1
Step 212000
Ar -9.333402e-01 0.000000e+00 0.000000e+00
1
Step 213000
Ar -9.217606e-01 0.000000e+00 0.000000e+00
1
Step 214000
Ar -9.170747e-01 0.000000e+00 0.000000e+00
1
Step 215000
Ar -9.081321e-01 0.000000e+00 0.000000e+00
1
Step 216000
Ar -9.282408e-01 0.000000e+00 0.000000e+00
1
Step 217000
Ar -9.297355e-01 0.000000e+00 0.000000e+00
1
Step 218000
Ar -9.387984e-01 0.000000e+00 0.000000e+00
1
Step 219000
Ar -9.337675e-01 0.000000e+00 0.000000e+00
1
Step 220000
Ar -9.288602e-01 0.000000e+00 0.000000e+00
1
Step 221000
Ar -1.135319e+00 0.000000e+00 0.000000e+00
1
Step 222000
Ar -1.075203e+00 0.000000e+00 0.000000e+00
1
Step 223000
Ar -1.269108e+00 0.000000e+00 0.000000e+00
1
Step 224000
Ar -1.063661e+00 0.000000e+00 0.000000e+00
1
Step 225000
Ar -1.276251e+00 0.000000e+00 0.000000e+00
1
Step 226000
Ar -1.072822e+00 0.000000e+00 0.000000e+00
1
Step 227000
Ar -1.220970e+00 0.000000e+00 0.000000e+00
1
Step 228000
Ar -1.076709e+00 0.000000e+00 0.000000e+00
1
Step 229000
Ar -1.131941e+00 0.000000e+00 0.000000e+00
1
Step 230000
Ar -1.190247e+00 0.000000e+00 0.000000e+00
1
Step 231000
Ar -1.225356e+00 0.000000e+00 0.000000e+00
1
Step 232000
Ar -1.201255e+00 0.000000e+00 0.000000e+00
1
Step 233000
Ar -1.240417e+00 0.000000e+00 0.000000e+00
1
Step 234000
Ar -1.205393e+00 0.000000e+00 0.000000e+00
1
Step 235000
Ar -1.232302e+00 0.000000e+00 0.000000e+00
1
Step 236000
Ar -1.054363e+00 0.000000e+00 0.000000e+00
1
Step 237000
Ar -1.124743e+00 0.000000e+00 0.000000e+00
1
Step 238000
Ar -1.084694e+00 0.000000e+00 0.000000e+00
1
Step 239000
Ar -1.092100e+00 0.000000e+00 0.000000e+00
1
Step 240000
Ar -1.140842e+00 0.000000e+00 0.000000e+00
1
Step 241000
Ar -9.407779e-01 0.000000e+00 0.000000e+00
1
Step 242000
Ar -9.413321e-01 0.000000e+00 0.000000e+00
1
Step 243000
Ar -9.399617e-01 0.000000e+00 0.000000e+00
1
Step 244000
Ar -9.504790e-01 0.000000e+00 0.000000e+00
1
Step 245000
Ar -9.483059e-01 0.000000e+00 0.000000e+00
1
Step 246000
Ar -9.978033e-01 0.000000e+00 0.000000e+00
1
Step 247000
Ar -1.016784e+00 0.000000e+00 0.000000e+00
1
Step 248000
Ar -9.876168e-01 0.000000e+00 0.000000e+00
1
Step 249000
Ar -1.027467e+00 0.000000e+00 0.000000e+00
1
Step 250000
Ar -1.026434e+00 0.000000e+00 0.000000e+00
1
Step 251000
Ar -1.075070e+00 0.000000e+00 0.000000e+00
1
Step 252000
Ar -1.069730e+00 0.000000e+00 0.000000e+00
1
Step 253000
Ar -1.067715e+00 0.000000e+00 0.000000e+00
1
Step 254000
Ar -1.081354e+00 0.000000e+00 0.000000e+00
1
Step 255000
Ar -1.083282e+00 0.000000e+00 0.000000e+00
1
Step 256000
Ar -1.109709e+00 0.000000e+00 0.000000e+00
1
Step 257000
Ar -1.098139e+00 0.000000e+00 0.000000e+00
1
Step 258000
Ar -1.094725e+00 0.000000e+00 0.000000e+00
1
Step 259000
Ar -1.126424e+00 0.000000e+00 0.000000e+00
1
Step 260000
Ar -1.097472e+00 0.000000e+00 0.000000e+00
1
Step 261000
Ar -1.212759e+00 0.000000e+00 0.000000e+00
1
Step 262000
Ar -1.217417e+00 0.000000e+00 0.000000e+00
1
Step 263000
Ar -1.217522e+00 0.000000e+00 0.000000e+00
1
Step 264000
Ar -1.205537e+00 0.000000e+00 0.000000e+00
1
Step 265000
Ar -1.213405e+00 0.000000e+00 0.000000e+00
1
Step 266000
Ar -8.039962e-01 0.000000e+00 0.000000e+00
1
Step 267000
Ar -8.085187e-01 0.000000e+00 0.000000e+00
1
Step 268000
Ar -8.389102e-01 0.000000e+00 0.000000e+00
1
Step 269000
Ar -7.909397e-01 0.000000e+00 0.000000e+00
1
Step 270000
Ar -8.444708e-01 0.000000e+00 0.000000e+00
1
Step 271000
Ar -8.663426e-01 0.000000e+00 0.000000e+00
1
Step 272000
Ar -8.683956e-01 0.000000e+00 0.000000e+00
1
Step 273000
Ar -8.820342e-01 0.000000e+00 0.000000e+00
1
Step 274000
Ar -8.688902e-01 0.000000e+00 0.000000e+00
1
Step 275000
Ar -8.608881e-01 0.000000e+00 0.000000e+00
1
Step 276000
Ar -8.759510e-01 0.000000e+00 0.000000e+00
1
Step 277000
Ar -8.772078e-01 0.000000e+00 0.000000e+00
1
Step 278000
Ar -8.814362e-01 0.000000e+00 0.000000e+00
1
Step 279000
Ar -8.802210e-01 0.000000e+00 0.000000e+00
1
Step 280000
Ar -8.778606e-01 0.000000e+00 0.000000e+00
1
Step 281000
Ar -8.334811e-01 0.000000e+00 0.000000e+00
1
Step 282000
Ar -6.958003e-01 0.000000e+00 0.000000e+00
1
Step 283000
Ar -7.414387e-01 0.000000e+00 0.000000e+00
1
Step 284000
Ar -7.488193e-01 0.000000e+00 0.000000e+00
1
Step 285000
Ar -7.260982e-01 0.000000e+00 0.000000e+00
1
Step 286000
Ar -7.547680e-01 0.000000e+00 0.000000e+00
1
Step 287000
Ar -7.399227e-01 0.000000e+00 0.000000e+00
1
Step 288000
Ar -7.876298e-01 0.000000e+00 0.000000e+00
1
Step 289000
Ar -8.166668e-01 0.000000e+00 0.000000e+00
1
Step 290000
Ar -7.786212e-01 0.000000e+00 0.000000e+00
1
Step 291000
Ar -7.451132e-01 0.000000e+00 0.000000e+00
1
Step 292000
Ar -7.604065e-01 0.000000e+00 0.000000e+00
1
Step 293000
Ar -7.540402e-01 0.000000e+00 0.000000e+00
1
Step 294000
Ar -7.643633e-01 0.000000e+00 0.000000e+00
1
Step 295000
Ar -7.527019e-01 0.000000e+00 0.000000e+00
1
Step 296000
Ar -7.897037e-01 0.000000e+00 0.000000e+00
1
Step 297000
Ar -8.265194e-01 0.000000e+00 0.000000e+00
1
Step 298000
Ar -8.203714e-01 0.000000e+00 0.000000e+00
1
Step 299000
Ar -8.327442e-01 0.000000e+00 0.000000e+00
1
Step 300000
Ar -8.306120e-01 0.000000e+00 0.000000e+00
1
Step 301000
Ar -7.987568e-01 0.000000e+00 0.000000e+00
1
Step 302000
Ar -7.899928e-01 0.000000e+00 0.000000e+00
1
Step 303000
Ar -8.066008e-01 0.000000e+00 0.000000e+00
1
Step 304000
Ar -7.903605e-01 0.000000e+00 0.000000e+00
1
Step 305000
Ar -8.072230e-01 0.000000e+00 0.000000e+00
1
Step 306000
Ar -7.918212e-01 0.000000e+00 0.000000e+00
1
Step 307000
Ar -7.905400e-01 0.000000e+00 0.000000e+00
1
Step 308000
Ar -8.248995e-01 0.000000e+00 0.000000e+00
1
Step 309000
Ar -8.207463e-01 0.000000e+00 0.000000e+00
1
Step 310000
Ar -8.258007e-01 0.000000e+00 0.000000e+00
1
Step 311000
Ar -7.924940e-01 0.000000e+00 0.000000e+00
1
Step 312000
Ar -7.933888e-01 0.000000e+00 0.000000e+00
1
Step 313000
Ar -7.919360e-01 0.000000e+00 0.000000e+00
1
Step 314000
Ar -7.911861e-01 0.000000e+00 0.000000e+00
1
Step 315000
Ar -7.918452e-01 0.000000e+00 0.000000e+00
1
Step 316000
Ar -7.634026e-01 0.000000e+00 0.000000e+00
1
Step 317000
Ar -7.633160e-01 0.000000e+00 0.000000e+00
1
Step 318000
Ar -7.694564e-01 0.000000e+00 0.000000e+00
1
Step 319000
Ar -7.656765e-01 0.000000e+00 0.000000e+00
1
Step 320000
Ar -7.655769e-01 0.000000e+00 0.000000e+00
1
Step 321000
Ar -5.458160e-01 0.000000e+00 0.000000e+00
1
Step 322000
Ar -6.829661e-01 0.000000e+00 0.000000e+00
1
Step 323000
Ar -6.487595e-01 0.000000e+00 0.000000e+00
1
Step 324000
Ar -5.692186e-01 0.000000e+00 0.000000e+00
1
Step 325000
Ar -6.628286e-01 0.000000e+00 0.000000e+00
1
Step 326000
Ar -6.038489e-01 0.000000e+00 0.000000e+00
1
Step 327000
Ar -6.065977e-01 0.000000e+00 0.000000e+00
1
Step 328000
Ar -6.311324e-01 0.000000e+00 0.000000e+00
1
Step 329000
Ar -6.309937e-01 0.000000e+00 0.000000e+00
1
Step 330000
Ar -5.855268e-01 0.000000e+00 0.000000e+00
1
Step 331000
Ar -7.408833e-01 0.000000e+00 0.000000e+00
1
Step 332000
Ar -7.430014e-01 0.000000e+00 0.000000e+00
1
Step 333000
Ar -7.372261e-01 0.000000e+00 0.000000e+00
1
Step 334000
Ar -7.362333e-01 0.000000e+00 0.000000e+00
1
Step 335000
Ar -7.353546e-01 0.000000e+00 0.000000e+00
1
Step 336000
Ar -1.295206e+00 0.000000e+00 0.000000e+00
1
Step 337000
Ar -1.290008e+00 0.000000e+00 0.000000e+00
1
Step 338000
Ar -1.311074e+00 0.000000e+00 0.000000e+00
1
Step 339000
Ar -1.298768e+00 0.000000e+00 0.000000e+00
1
Step 340000
Ar -1.295975e+00 0.000000e+00 0.000000e+00
1
Step 341000
Ar -1.330955e+00 0.000000e+00 0.000000e+00
1
Step 342000
Ar -1.337063e+00 0.000000e+00 0.000000e+00
1
Step 343000
Ar -1.315248e+00 0.000000e+00 0.000000e+00
1
Step 344000
Ar -1.363531e+00 0.000000e+00 0.000000e+00
1
Step 345000
Ar -1.320646e+00 0.000000e+00 0.000000e+00
1
Step 346000
Ar -1.255558e+00 0.000000e+00 0.000000e+00
1
Step 347000
Ar -1.248527e+00 0.000000e+00 0.000000e+00
1
Step 348000
Ar -1.243283e+00 0.000000e+00 0.000000e+00
1
Step 349000
Ar -1.255576e+00 0.000000e+00 0.000000e+00
1
Step 350000
Ar -1.249092e+00 0.000000e+00 0.000000e+00
1
Step 351000
Ar -1.260411e+00 0.000000e+00 0.000000e+00
1
Step 352000
Ar -1.260614e+00 0.000000e+00 0.000000e+00
1
Step 353000
Ar -1.264753e+00 0.000000e+00 0.000000e+00
1
Step 354000
Ar -1.258642e+00 0.000000e+00 0.000000e+00
1
Step 355000
Ar -1.261863e+00 0.000000e+00 0.000000e+00
1
Step 356000
Ar -1.202664e+00 0.000000e+00 0.000000e+00
1
Step 357000
Ar -1.203235e+00 0.000000e+00 0.000000e+00
1
Step 358000
Ar -1.200315e+00 0.000000e+00 0.000000e+00
1
Step 359000
Ar -1.200586e+00 0.000000e+00 0.000000e+00
1
Step 360000
Ar -1.198826e+00 0.000000e+00 0.000000e+00
1
Step 361000
Ar -1.270004e+00 0.000000e+00 0.000000e+00
1
Step 362000
Ar -1.346272e+00 0.000000e+00 0.000000e+00
1
Step 363000
Ar -1.335274e+00 0.000000e+00 0.000000e+00
1
Step 364000
Ar -1.337395e+00 0.000000e+00 0.000000e+00
1
Step 365000
Ar -1.353740e+00 0.000000e+00 0.000000e+00
1
Step 366000
Ar -1.375080e+00 0.000000e+00 0.000000e+00
1
Step 367000
Ar -1.397350e+00 0.000000e+00 0.000000e+00
1
Step 368000
Ar -1.375815e+00 0.000000e+00 0.000000e+00
1
Step 369000
Ar -1.372895e+00 0.000000e+00 0.000000e+00
1
Step 370000
Ar -1.387681e+00 0.000000e+00 0.000000e+00
1
Step 371000
Ar 6.972914e-01 0.000000e+00 0.000000e+00
1
Step 372000
Ar 5.974969e-01 0.000000e+00 0.000000e+00
1
Step 373000
Ar 6.369617e-01 0.000000e+00 0.000000e+00
1
Step 374000
Ar 6.349092e-01 0.000000e+00 0.000000e+00
1
Step 375000
Ar 6.312820e-01 0.000000e+00 0.000000e+00
1
Step 376000
Ar 6.724737e-01 0.000000e+00 0.000000e+00
1
Step 377000
Ar 7.001032e-01 0.000000e+00 0.000000e+00
1
Step 378000
Ar 6.912499e-01 0.000000e+00 0.000000e+00
1
Step 379000
Ar 6.545130e-01 0.000000e+00 0.000000e+00
1
Step 380000
Ar 6.724816e-01 0.000000e+00 0.000000e+00
1
Step 381000
Ar 6.084472e-01 0.000000e+00 0.000000e+00
1
Step 382000
Ar 5.768986e-01 0.000000e+00 0.000000e+00
1
Step 383000
Ar 6.116688e-01 0.000000e+00 0.000000e+00
1
Step 384000
Ar 5.522979e-01 0.000000e+00 0.000000e+00
1
Step 385000
Ar 5.598010e-01 0.000000e+00 0.000000e+00
1
Step 386000
Ar 8.806920e-01 0.000000e+00 0.000000e+00
1
Step 387000
Ar 8.867461e-01 0.000000e+00 0.000000e+00
1
Step 388000
Ar 8.749825e-01 0.000000e+00 0.000000e+00
1
Step 389000
Ar 8.719090e-01 0.000000e+00 0.000000e+00
1
Step 390000
Ar 8.769233e-01 0.000000e+00 0.000000e+00
1
Step 391000
Ar 9.433664e-01 0.000000e+00 0.000000e+00
1
Step 392000
Ar 9.456050e-01 0.000000e+00 0.000000e+00
1
Step 393000
Ar 9.444990e-01 0.000000e+00 0.000000e+00
1
Step 394000
Ar 9.488859e-01 0.000000e+00 0.000000e+00
1
Step 395000
Ar 9.447997e-01 0.000000e+00 0.000000e+00
1
Step 396000
Ar 8.641213e-01 0.000000e+00 0.000000e+00
1
Step 397000
Ar 8.619953e-01 0.000000e+00 0.000000e+00
1
Step 398000
Ar 8.668849e-01 0.000000e+00 0.000000e+00
1
Step 399000
Ar 8.596330e-01 0.000000e+00 0.000000e+00
1
Step 400000
Ar 8.639880e-01 0.000000e+00 0.000000e+00
1
Step 401000
Ar 8.189642e-01 0.000000e+00 0.000000e+00
1
Step 402000
Ar 8.093520e-01 0.000000e+00 0.000000e+00
1
Step 403000
Ar 8.178996e-01 0.000000e+00 0.000000e+00
1
Step 404000
Ar 8.221226e-01 0.000000e+00 0.000000e+00
1
Step 405000
Ar 8.229103e-01 0.000000e+00 0.000000e+00
1
Step 406000
Ar 8.384975e-01 0.000000e+00 0.000000e+00
1
Step 407000
Ar 7.330592e-01 0.000000e+00 0.000000e+00
1
Step 408000
Ar 7.965210e-01 0.000000e+00 0.000000e+00
1
Step 409000
Ar 8.094732e-01 0.000000e+00 0.000000e+00
1
Step 410000
Ar 8.007973e-01 0.000000e+00 0.000000e+00
1
Step 411000
Ar 8.142437e-01 0.000000e+00 0.000000e+00
1
Step 412000
Ar 8.121727e-01 0.000000e+00 0.000000e+00
1
Step 413000
Ar 8.130537e-01 0.000000e+00 0.000000e+00
1
Step 414000
Ar 8.123939e-01 0.000000e+00 0.000000e+00
1
Step 415000
Ar 8.112333e-01 0.000000e+00 0.000000e+00
1
Step 416000
Ar 7.451255e-01 0.000000e+00 0.000000e+00
1
Step 417000
Ar 7.407554e-01 0.000000e+00 0.000000e+00
1
Step 418000
Ar 7.424262e-01 0.000000e+00 0.000000e+00
1
Step 419000
Ar 7.435442e-01 0.000000e+00 0.000000e+00
1
Step 420000
Ar 7.466298e-01 0.000000e+00 0.000000e+00
1
Step 421000
Ar 5.085577e-01 0.000000e+00 0.000000e+00
1
Step 422000
Ar 4.905384e-01 0.000000e+00 0.000000e+00
1
Step 423000
Ar 4.302636e-01 0.000000e+00 0.000000e+00
1
Step 424000
Ar 4.571488e-01 0.000000e+00 0.000000e+00
1
Step 425000
Ar 4.316230e-01 0.000000e+00 0.000000e+00
1
Step 426000
Ar 4.973075e-01 0.000000e+00 0.000000e+00
1
Step 427000
Ar 4.941112e-01 0.000000e+00 0.000000e+00
1
Step 428000
Ar 5.211827e-01 0.000000e+00 0.000000e+00
1
Step 429000
Ar 4.890905e-01 0.000000e+00 0.000000e+00
1
Step 430000
Ar 5.495160e-01 0.000000e+00 0.000000e+00
1
Step 431000
Ar 6.070237e-01 0.000000e+00 0.000000e+00
1
Step 432000
Ar 6.142742e-01 0.000000e+00 0.000000e+00
1
Step 433000
Ar 5.924980e-01 0.000000e+00 0.000000e+00
1
Step 434000
Ar 5.970832e-01 0.000000e+00 0.000000e+00
1
Step 435000
Ar 5.818284e-01 0.000000e+00 0.000000e+00
1
Step 436000
Ar 1.118751e+00 0.000000e+00 0.000000e+00
1
Step 437000
Ar 1.188125e+00 0.000000e+00 0.000000e+00
1
Step 438000
Ar 1.156155e+00 0.000000e+00 0.000000e+00
1
Step 439000
Ar 1.117552e+00 0.000000e+00 0.000000e+00
1
Step 440000
Ar 1.131184e+00 0.000000e+00 0.000000e+00
1
Step 441000
Ar 1.246699e+00 0.000000e+00 0.000000e+00
1
Step 442000
Ar 1.160456e+00 0.000000e+00 0.000000e+00
1
Step 443000
Ar 1.252870e+00 0.000000e+00 0.000000e+00
1
Step 444000
Ar 1.187693e+00 0.000000e+00 0.000000e+00
1
Step 445000
Ar 1.140388e+00 0.000000e+00 0.000000e+00
1
Step 446000
Ar 1.191578e+00 0.000000e+00 0.000000e+00
1
Step 447000
Ar 1.172915e+00 0.000000e+00 0.000000e+00
1
Step 448000
Ar 1.158458e+00 0.000000e+00 0.000000e+00
1
Step 449000
Ar 1.211500e+00 0.000000e+00 0.000000e+00
1
Step 450000
Ar 1.176244e+00 0.000000e+00 0.000000e+00
1
Step 451000
Ar 1.208340e+00 0.000000e+00 0.000000e+00
1
Step 452000
Ar 1.229999e+00 0.000000e+00 0.000000e+00
1
Step 453000
Ar 1.190999e+00 0.000000e+00 0.000000e+00
1
Step 454000
Ar 1.195305e+00 0.000000e+00 0.000000e+00
1
Step 455000
Ar 1.243506e+00 0.000000e+00 0.000000e+00
1
Step 456000
Ar 1.223007e+00 0.000000e+00 0.000000e+00
1
Step 457000
Ar 1.200124e+00 0.000000e+00 0.000000e+00
1
Step 458000
Ar 1.216889e+00 0.000000e+00 0.000000e+00
1
Step 459000
Ar 1.216536e+00 0.000000e+00 0.000000e+00
1
Step 460000
Ar 1.198489e+00 0.000000e+00 0.000000e+00
1
Step 461000
Ar 1.158720e+00 0.000000e+00 0.000000e+00
1
Step 462000
Ar 1.158388e+00 0.000000e+00 0.000000e+00
1
Step 463000
Ar 1.151829e+00 0.000000e+00 0.000000e+00
1
Step 464000
Ar 1.157520e+00 0.000000e+00 0.000000e+00
1
Step 465000
Ar 1.160245e+00 0.000000e+00 0.000000e+00
1
Step 466000
Ar 1.060104e+00 0.000000e+00 0.000000e+00
1
Step 467000
Ar 1.055159e+00 0.000000e+00 0.000000e+00
1
Step 468000
Ar 1.054214e+00 0.000000e+00 0.000000e+00
1
Step 469000
Ar 1.055121e+00 0.000000e+00 0.000000e+00
1
Step 470000
Ar 1.058568e+00 0.000000e+00 0.000000e+00
1
Step 471000
Ar 1.018798e+00 0.000000e+00 0.000000e+00
1
Step 472000
Ar 1.014741e+00 0.000000e+00 0.000000e+00
1
Step 473000
Ar 1.015421e+00 0.000000e+00 0.000000e+00
1
Step 474000
Ar 1.010330e+00 0.000000e+00 0.000000e+00
1
Step 475000
Ar 1.014900e+00 0.000000e+00 0.000000e+00
1
Step 476000
Ar 9.641382e-01 0.000000e+00 0.000000e+00
1
Step 477000
Ar 9.681585e-01 0.000000e+00 0.000000e+00
1
Step 478000
Ar 9.634984e-01 0.000000e+00 0.000000e+00
1
Step 479000
Ar 9.675539e-01 0.000000e+00 0.000000e+00
1
Step 480000
Ar 9.657245e-01 0.000000e+00 0.000000e+00
1
Step 481000
Ar 1.151330e+00 0.000000e+00 0.000000e+00
1
Step 482000
Ar 1.150327e+00 0.000000e+00 0.000000e+00
1
Step 483000
Ar 1.148109e+00 0.000000e+00 0.000000e+00
1
Step 484000
Ar 1.150275e+00 0.000000e+00 0.000000e+00
1
Step 485000
Ar 1.148545e+00 0.000000e+00 0.000000e+00
1
Step 486000
Ar 1.213743e+00 0.000000e+00 0.000000e+00
1
Step 487000
Ar 1.218693e+00 0.000000e+00 0.000000e+00
1
Step 488000
Ar 1.217616e+00 0.000000e+00 0.000000e+00
1
Step 489000
Ar 1.215508e+00 0.000000e+00 0.000000e+00
1
Step 490000
Ar 1.229148e+00 0.000000e+00 0.000000e+00
1
Step 491000
Ar 1.214020e+00 0.000000e+00 0.000000e+00
1
Step 492000
Ar 1.208964e+00 0.000000e+00 0.000000e+00
1
Step 493000
Ar 1.216992e+00 0.000000e+00 0.000000e+00
1
Step 494000
Ar 1.214811e+00 0.000000e+00 0.000000e+00
1
Step 495000
Ar 1.214292e+00 0.000000e+00 0.000000e+00
1
Step 496000
Ar 1.186100e+00 0.000000e+00 0.000000e+00
1
Step 497000
Ar 1.186249e+00 0.000000e+00 0.000000e+00
1
Step 498000
Ar 1.186506e+00 0.000000e+00 0.000000e+00
1
Step 499000
Ar 1.188229e+00 0.000000e+00 0.000000e+00
1
Step 500000
Ar 1.190456e+00 0.000000e+00 0.000000e+00
1
Step 501000
Ar 1.170145e+00 0.000000e+00 0.000000e+00
1
Step 502000
Ar 1.179687e+00 0.000000e+00 0.000000e+00
1
Step 503000
Ar 1.416485e+00 0.000000e+00 0.000000e+00
1
Step 504000
Ar 1.269433e+00 0.000000e+00 0.000000e+00
1
Step 505000
Ar 1.277111e+00 0.000000e+00 0.000000e+00
1
Step 506000
Ar 1.312547e+00 0.000000e+00 0.000000e+00
1
Step 507000
Ar 1.316768e+00 0.000000e+00 0.000000e+00
1
Step 508000
Ar 1.333314e+00 0.000000e+00 0.000000e+00
1
Step 509000
Ar 1.309080e+00 0.000000e+00 0.000000e+00
1
Step 510000
Ar 1.293004e+00 0.000000e+00 0.000000e+00
1
Step 511000
Ar 1.361660e+00 0.000000e+00 0.000000e+00
1
Step 512000
Ar 1.362785e+00 0.000000e+00 0.000000e+00
1
Step 513000
Ar 1.336943e+00 0.000000e+00 0.000000e+00
1
Step 514000
Ar 1.327445e+00 0.000000e+00 0.000000e+00
1
Step 515000
Ar 1.338298e+00 0.000000e+00 0.000000e+00
1
Step 516000
Ar 1.361729e+00 0.000000e+00 0.000000e+00
1
Step 517000
Ar 1.357761e+00 0.000000e+00 0.000000e+00
1
Step 518000
Ar 1.356964e+00 0.000000e+00 0.000000e+00
1
Step 519000
Ar 1.358631e+00 0.000000e+00 0.000000e+00
1
Step 520000
Ar 1.365957e+00 0.000000e+00 0.000000e+00
1
Step 521000
Ar 1.353561e+00 0.000000e+00 0.000000e+00
1
Step 522000
Ar 1.354038e+00 0.000000e+00 0.000000e+00
1
Step 523000
Ar 1.355612e+00 0.000000e+00 0.000000e+00
1
Step 524000
Ar 1.350619e+00 0.000000e+00 0.000000e+00
1
Step 525000
Ar 1.346771e+00 0.000000e+00 0.000000e+00
1
Step 526000
Ar 1.387991e+00 0.000000e+00 0.000000e+00
1
Step 527000
Ar 1.442237e+00 0.000000e+00 0.000000e+00
1
Step 528000
Ar 1.392849e+00 0.000000e+00 0.000000e+00
1
Step 529000
Ar 1.410910e+00 0.000000e+00 0.000000e+00
1
Step 530000
Ar 1.378434e+00 0.000000e+00 0.000000e+00
1
Step 531000
Ar 1.421074e+00 0.000000e+00 0.000000e+00
1
Step 532000
Ar 1.407707e+00 0.000000e+00 0.000000e+00
1
Step 533000
Ar 1.405315e+00 0.000000e+00 0.000000e+00
1
Step 534000
Ar 1.468459e+00 0.000000e+00 0.000000e+00
1
Step 535000
Ar 1.444902e+00 0.000000e+00 0.000000e+00
1
Step 536000
Ar 1.396311e+00 0.000000e+00 0.000000e+00
1
Step 537000
Ar 1.401118e+00 0.000000e+00 0.000000e+00
1
Step 538000
Ar 1.431106e+00 0.000000e+00 0.000000e+00
1
Step 539000
Ar 1.395963e+00 0.000000e+00 0.000000e+00
1
Step 540000
Ar 1.422129e+00 0.000000e+00 0.000000e+00
1
Step 541000
Ar 1.493929e+00 0.000000e+00 0.000000e+00
1
Step 542000
Ar 1.461152e+00 0.000000e+00 0.000000e+00
1
Step 543000
Ar 1.465534e+00 0.000000e+00 0.000000e+00
1
Step 544000
Ar 1.477730e+00 0.000000e+00 0.000000e+00
1
Step 545000
Ar 1.478235e+00 0.000000e+00 0.000000e+00
1
Step 546000
Ar 1.399140e+00 0.000000e+00 0.000000e+00
1
Step 547000
Ar 1.395407e+00 0.000000e+00 0.000000e+00
1
Step 548000
Ar 1.395873e+00 0.000000e+00 0.000000e+00
1
Step 549000
Ar 1.393974e+00 0.000000e+00 0.000000e+00
1
Step 550000
Ar 1.394808e+00 0.000000e+00 0.000000e+00
1
Step 551000
Ar 1.316051e+00 0.000000e+00 0.000000e+00
1
Step 552000
Ar 1.304221e+00 0.000000e+00 0.000000e+00
1
Step 553000
Ar 1.315332e+00 0.000000e+00 0.000000e+00
1
Step 554000
Ar 1.307370e+00 0.000000e+00 0.000000e+00
1
Step 555000
Ar 1.316162e+00 0.000000e+00 0.000000e+00
1
Step 556000
Ar 1.253397e+00 0.000000e+00 0.000000e+00
1
Step 557000
Ar 1.263168e+00 0.000000e+00 0.000000e+00
1
Step 558000
Ar 1.258137e+00 0.000000e+00 0.000000e+00
1
Step 559000
Ar 1.263778e+00 0.000000e+00 0.000000e+00
1
Step 560000
Ar 1.263152e+00 0.000000e+00 0.000000e+00
1
Step 561000
Ar 1.254580e+00 0.000000e+00 0.000000e+00
1
Step 562000
Ar 1.255697e+00 0.000000e+00 0.000000e+00
1
Step 563000
Ar 1.252271e+00 0.000000e+00 0.000000e+00
1
Step 564000
Ar 1.250457e+00 0.000000e+00 0.000000e+00
1
Step 565000
Ar 9.196340e-01 0.000000e+00 0.000000e+00
1
Step 566000
Ar 8.343741e-01 0.000000e+00 0.000000e+00
1
Step 567000
Ar 8.390319e-01 0.000000e+00 0.000000e+00
1
Step 568000
Ar 8.364379e-01 0.000000e+00 0.000000e+00
1
Step 569000
Ar 8.366647e-01 0.000000e+00 0.000000e+00
1
Step 570000
Ar 8.371066e-01 0.000000e+00 0.000000e+00
1
Step 571000
Ar 7.917509e-01 0.000000e+00 0.000000e+00
1
Step 572000
Ar 7.907916e-01 0.000000e+00 0.000000e+00
1
Step 573000
Ar 7.828593e-01 0.000000e+00 0.000000e+00
1
Step 574000
Ar 7.941666e-01 0.000000e+00 0.000000e+00
1
Step 575000
Ar 7.904392e-01 0.000000e+00 0.000000e+00
1
Step 576000
Ar 9.141512e-01 0.000000e+00 0.000000e+00
1
Step 577000
Ar 6.588376e-01 0.000000e+00 0.000000e+00
1
Step 578000
Ar 6.537734e-01 0.000000e+00 0.000000e+00
1
Step 579000
Ar 6.513852e-01 0.000000e+00 0.000000e+00
1
Step 580000
Ar 6.495190e-01 0.000000e+00 0.000000e+00
1
Step 581000
Ar 6.001494e-01 0.000000e+00 0.000000e+00
1
Step 582000
Ar 6.201293e-01 0.000000e+00 0.000000e+00
1
Step 583000
Ar 5.991586e-01 0.000000e+00 0.000000e+00
1
Step 584000
Ar 6.024250e-01 0.000000e+00 0.000000e+00
1
Step 585000
Ar 6.072168e-01 0.000000e+00 0.000000e+00
1
Step 586000
Ar 5.931846e-01 0.000000e+00 0.000000e+00
1
Step 587000
Ar 5.908536e-01 0.000000e+00 0.000000e+00
1
Step 588000
Ar 5.956535e-01 0.000000e+00 0.000000e+00
1
Step 589000
Ar 5.942559e-01 0.000000e+00 0.000000e+00
1
Step 590000
Ar 5.898548e-01 0.000000e+00 0.000000e+00
1
Step 591000
Ar 7.204139e-01 0.000000e+00 0.000000e+00
1
Step 592000
Ar 7.261491e-01 0.000000e+00 0.000000e+00
1
Step 593000
Ar 7.252381e-01 0.000000e+00 0.000000e+00
1
Step 594000
Ar 7.236224e-01 0.000000e+00 0.000000e+00
1
Step 595000
Ar 7.219339e-01 0.000000e+00 0.000000e+00
1
Step 596000
Ar 6.138531e-01 0.000000e+00 0.000000e+00
1
Step 597000
Ar 6.198208e-01 0.000000e+00 0.000000e+00
1
Step 598000
Ar 6.167643e-01 0.000000e+00 0.000000e+00
1
Step 599000
Ar 6.173399e-01 0.000000e+00 0.000000e+00
1
Step 600000
Ar 6.199209e-01 0.000000e+00 0.000000e+00
1
Step 601000
Ar 6.908644e-01 0.000000e+00 0.000000e+00
1
Step 602000
Ar 6.963493e-01 0.000000e+00 0.000000e+00
1
Step 603000
Ar 6.924439e-01 0.000000e+00 0.000000e+00
1
Step 604000
Ar 6.958170e-01 0.000000e+00 0.000000e+00
1
Step 605000
Ar 6.878121e-01 0.000000e+00 0.000000e+00
1
Step 606000
Ar 6.624651e-01 0.000000e+00 0.000000e+00
1
Step 607000
Ar 6.602876e-01 0.000000e+00 0.000000e+00
1
Step 608000
Ar 6.629124e-01 0.000000e+00 0.000000e+00
1
Step 609000
Ar 6.606848e-01 0.000000e+00 0.000000e+00
1
Step 610000
Ar 6.598611e-01 0.000000e+00 0.000000e+00
1
Step 611000
Ar 4.778833e-01 0.000000e+00 0.000000e+00
1
Step 612000
Ar 5.129077e-01 0.000000e+00 0.000000e+00
1
Step 613000
Ar 4.550745e-01 0.000000e+00 0.000000e+00
1
Step 614000
Ar 4.763516e-01 0.000000e+00 0.000000e+00
1
Step 615000
Ar 4.593663e-01 0.000000e+00 0.000000e+00
1
Step 616000
Ar 5.234762e-01 0.000000e+00 0.000000e+00
1
Step 617000
Ar 4.807528e-01 0.000000e+00 0.000000e+00
1
Step 618000
Ar 5.050986e-01 0.000000e+00 0.000000e+00
1
Step 619000
Ar 5.220626e-01 0.000000e+00 0.000000e+00
1
Step 620000
Ar 5.136711e-01 0.000000e+00 0.000000e+00
1
Step 621000
Ar 5.287537e-01 0.000000e+00 0.000000e+00
1
Step 622000
Ar 5.330834e-01 0.000000e+00 0.000000e+00
1
Step 623000
Ar 5.321771e-01 0.000000e+00 0.000000e+00
1
Step 624000
Ar 5.382537e-01 0.000000e+00 0.000000e+00
1
Step 625000
Ar 5.326424e-01 0.000000e+00 0.000000e+00
1
Step 626000
Ar 4.738493e-01 0.000000e+00 0.000000e+00
1
Step 627000
Ar 4.836417e-01 0.000000e+00 0.000000e+00
1
Step 628000
Ar 4.996812e-01 0.000000e+00 0.000000e+00
1
Step 629000
Ar 4.819231e-01 0.000000e+00 0.000000e+00
1
Step 630000
Ar 4.958601e-01 0.000000e+00 0.000000e+00
1
Step 631000
Ar 4.808752e-01 0.000000e+00 0.000000e+00
1
Step 632000
Ar 4.816465e-01 0.000000e+00 0.000000e+00
1
Step 633000
Ar 4.797017e-01 0.000000e+00 0.000000e+00
1
Step 634000
Ar 4.717145e-01 0.000000e+00 0.000000e+00
1
Step 635000
Ar 4.845176e-01 0.000000e+00 0.000000e+00
1
Step 636000
Ar 1.048167e+00 0.000000e+00 0.000000e+00
1
Step 637000
Ar 1.047512e+00 0.000000e+00 0.000000e+00
1
Step 638000
Ar 1.050665e+00 0.000000e+00 0.000000e+00
1
Step 639000
Ar 1.049654e+00 0.000000e+00 0.000000e+00
1
Step 640000
Ar 1.044615e+00 0.000000e+00 0.000000e+00
1
Step 641000
Ar 7.644990e-01 0.000000e+00 0.000000e+00
1
Step 642000
Ar 7.632645e-01 0.000000e+00 0.000000e+00
1
Step 643000
Ar 7.672651e-01 0.000000e+00 0.000000e+00
1
Step 644000
Ar 7.633499e-01 0.000000e+00 0.000000e+00
1
Step 645000
Ar 7.635889e-01 0.000000e+00 0.000000e+00
1
Step 646000
Ar 1.025441e+00 0.000000e+00 0.000000e+00
1
Step 647000
Ar 1.028692e+00 0.000000e+00 0.000000e+00
1
Step 648000
Ar 1.025249e+00 0.000000e+00 0.000000e+00
1
Step 649000
Ar 1.022291e+00 0.000000e+00 0.000000e+00
1
Step 650000
Ar 1.023671e+00 0.000000e+00 0.000000e+00
1
Step 651000
Ar 1.180586e+00 0.000000e+00 0.000000e+00
1
Step 652000