1
Step 120000
Ar 8.311224e-01 0.000000e+00 0.000000e+00
1
Step 121000
Ar 9.990390e-01 0.000000e+00 0.000000e+00
1
Step 122000
Ar 1.058729e+00 0.000000e+00 0.000000e+00
1
Step 123000
Ar 9.829331e-01 0.000000e+00 0.000000e+00
1
Step 124000
Ar 9.780583e-01 0.000000e+00 0.000000e+00
1
Step 125000
Ar 9.377057e-01 0.000000e+00 0.000000e+00
1
Step 126000
Ar 9.077455e-01 0.000000e+00 0.000000e+00
1
Step 127000
Ar 1.107766e+00 0.000000e+00 0.000000e+00
1
Step 128000
Ar 1.058016e+00 0.000000e+00 0.000000e+00
1
Step 129000
Ar 1.095166e+00 0.000000e+00 0.000000e+00
1
Step 130000
Ar 1.110086e+00 0.000000e+00 0.000000e+00
1
Step 131000
Ar 1.056587e+00 0.000000e+00 0.000000e+00
1
Step 132000
Ar 1.049725e+00 0.000000e+00 0.000000e+00
1
Step 133000
Ar 5.991966e-01 0.000000e+00 0.000000e+00
1
Step 134000
Ar 3.885000e-01 0.000000e+00 0.000000e+00
1
Step 135000
Ar 3.784759e-01 0.000000e+00 0.000000e+00
1
Step 136000
Ar 8.578928e-01 0.000000e+00 0.000000e+00
1
Step 137000
Ar 1.122365e+00 0.000000e+00 0.000000e+00
1
Step 138000
Ar 1.139888e+00 0.000000e+00 0.000000e+00
1
Step 139000
Ar 9.845969e-01 0.000000e+00 0.000000e+00
1
Step 140000
Ar 1.054418e+00 0.000000e+00 0.000000e+00
1
Step 141000
Ar 8.973015e-01 0.000000e+00 0.000000e+00
1
Step 142000
Ar 1.057081e+00 0.000000e+00 0.000000e+00
1
Step 143000
Ar 1.118337e+00 0.000000e+00 0.000000e+00
1
Step 144000
Ar 1.199192e+00 0.000000e+00 0.000000e+00
1
Step 145000
Ar 1.210657e+00 0.000000e+00 0.000000e+00
1
Step 146000
Ar 1.092079e+00 0.000000e+00 0.000000e+00
1
Step 147000
Ar 1.084314e+00 0.000000e+00 0.000000e+00
1
Step 148000
Ar 9.838089e-01 0.000000e+00 0.000000e+00
1
Step 149000
Ar 9.433300e-01 0.000000e+00 0.000000e+00
1
Step 150000
Ar 8.768788e-01 0.000000e+00 0.000000e+00
1
Step 151000
Ar 1.058916e+00 0.000000e+00 0.000000e+00
1
Step 152000
Ar 1.009598e+00 0.000000e+00 0.000000e+00
1
Step 153000
Ar 1.146688e+00 0.000000e+00 0.000000e+00
1
Step 154000
Ar 1.058916e+00 0.000000e+00 0.000000e+00
1
Step 155000
Ar 1.036119e+00 0.000000e+00 0.000000e+00
1
Step 156000
Ar 1.091294e+00 0.000000e+00 0.000000e+00
1
Step 157000
Ar 1.144784e+00 0.000000e+00 0.000000e+00
1
Step 158000
Ar 1.081459e+00 0.000000e+00 0.000000e+00
1
Step 159000
Ar 1.241251e+00 0.000000e+00 0.000000e+00
1
Step 160000
Ar 1.216319e+00 0.000000e+00 0.000000e+00
1
Step 161000
Ar 1.283669e+00 0.000000e+00 0.000000e+00
1
Step 162000
Ar 1.220977e+00 0.000000e+00 0.000000e+00
1
Step 163000
Ar 1.194416e+00 0.000000e+00 0.000000e+00
1
Step 164000
Ar 1.276506e+00 0.000000e+00 0.000000e+00
1
Step 165000
Ar 1.274138e+00 0.000000e+00 0.000000e+00
1
Step 166000
Ar 1.275368e+00 0.000000e+00 0.000000e+00
1
Step 167000
Ar 1.275539e+00 0.000000e+00 0.000000e+00
1
Step 168000
Ar 1.272160e+00 0.000000e+00 0.000000e+00
1
Step 169000
Ar 1.278415e+00 0.000000e+00 0.000000e+00
1
Step 170000
Ar 1.224208e+00 0.000000e+00 0.000000e+00
1
Step 171000
Ar 1.224254e+00 0.000000e+00 0.000000e+00
1
Step 172000
Ar 1.252930e+00 0.000000e+00 0.000000e+00
1
Step 173000
Ar 1.333966e+00 0.000000e+00 0.000000e+00
1
Step 174000
Ar 1.363703e+00 0.000000e+00 0.000000e+00
1
Step 175000
Ar 1.325697e+00 0.000000e+00 0.000000e+00
1
Step 176000
Ar 1.196444e+00 0.000000e+00 0.000000e+00
1
Step 177000
Ar 1.190985e+00 0.000000e+00 0.000000e+00
1
Step 178000
Ar 1.191727e+00 0.000000e+00 0.000000e+00
1
Step 179000
Ar 1.228243e+00 0.000000e+00 0.000000e+00
1
Step 180000
Ar 1.140658e+00 0.000000e+00 0.000000e+00
1
Step 181000
Ar 1.118219e+00 0.000000e+00 0.000000e+00
1
Step 182000
Ar 1.118361e+00 0.000000e+00 0.000000e+00
1
Step 183000
Ar 1.113577e+00 0.000000e+00 0.000000e+00
1
Step 184000
Ar 8.120921e-01 0.000000e+00 0.000000e+00
1
Step 185000
Ar 7.531163e-01 0.000000e+00 0.000000e+00
1
Step 186000
Ar 6.395809e-01 0.000000e+00 0.000000e+00
1
Step 187000
Ar 6.796859e-01 0.000000e+00 0.000000e+00
1
Step 188000
Ar 8.265445e-01 0.000000e+00 0.000000e+00
1
Step 189000
Ar 8.315676e-01 0.000000e+00 0.000000e+00
1
Step 190000
Ar 8.146220e-01 0.000000e+00 0.000000e+00
1
Step 191000
Ar 1.005155e+00 0.000000e+00 0.000000e+00
1
Step 192000
Ar 1.006990e+00 0.000000e+00 0.000000e+00
1
Step 193000
Ar 1.003080e+00 0.000000e+00 0.000000e+00
1
Step 194000
Ar 1.039325e+00 0.000000e+00 0.000000e+00
1
Step 195000
Ar 1.041255e+00 0.000000e+00 0.000000e+00
1
Step 196000
Ar 1.026323e+00 0.000000e+00 0.000000e+00
1
Step 197000
Ar 1.081420e+00 0.000000e+00 0.000000e+00
1
Step 198000
Ar 1.087729e+00 0.000000e+00 0.000000e+00
1
Step 199000
Ar 1.041682e+00 0.000000e+00 0.000000e+00
1
Step 200000
Ar 1.039699e+00 0.000000e+00 0.000000e+00
1
Step 201000
Ar 8.272537e-01 0.000000e+00 0.000000e+00
1
Step 202000
Ar 9.476496e-01 0.000000e+00 0.000000e+00
1
Step 203000
Ar 8.746945e-01 0.000000e+00 0.000000e+00
1
Step 204000
Ar 8.572630e-01 0.000000e+00 0.000000e+00
1
Step 205000
Ar 9.444185e-01 0.000000e+00 0.000000e+00
1
Step 206000
Ar 8.892485e-01 0.000000e+00 0.000000e+00
1
Step 207000
Ar 8.994646e-01 0.000000e+00 0.000000e+00
1
Step 208000
Ar 8.704633e-01 0.000000e+00 0.000000e+00
1
Step 209000
Ar 8.593869e-01 0.000000e+00 0.000000e+00
1
Step 210000
Ar 8.218538e-01 0.000000e+00 0.000000e+00
1
Step 211000
Ar 6.248915e-01 0.000000e+00 0.000000e+00
1
Step 212000
Ar 5.134351e-01 0.000000e+00 0.000000e+00
1
Step 213000
Ar 8.930727e-01 0.000000e+00 0.000000e+00
1
Step 214000
Ar 9.116100e-01 0.000000e+00 0.000000e+00
1
Step 215000
Ar 7.840878e-01 0.000000e+00 0.000000e+00
1
Step 216000
Ar 7.523141e-01 0.000000e+00 0.000000e+00
1
Step 217000
Ar 7.538727e-01 0.000000e+00 0.000000e+00
1
Step 218000
Ar 1.106973e+00 0.000000e+00 0.000000e+00
1
Step 219000
Ar 1.041429e+00 0.000000e+00 0.000000e+00
1
Step 220000
Ar 1.044629e+00 0.000000e+00 0.000000e+00
1
Step 221000
Ar 1.057309e+00 0.000000e+00 0.000000e+00
1
Step 222000
Ar 9.298954e-01 0.000000e+00 0.000000e+00
1
Step 223000
Ar 5.991684e-01 0.000000e+00 0.000000e+00
1
Step 224000
Ar 5.945379e-01 0.000000e+00 0.000000e+00
1
Step 225000
Ar 5.942896e-01 0.000000e+00 0.000000e+00
1
Step 226000
Ar 5.928787e-01 0.000000e+00 0.000000e+00
1
Step 227000
Ar 6.244334e-01 0.000000e+00 0.000000e+00
1
Step 228000
Ar 6.217646e-01 0.000000e+00 0.000000e+00
1
Step 229000
Ar 6.289227e-01 0.000000e+00 0.000000e+00
1
Step 230000
Ar 6.842846e-01 0.000000e+00 0.000000e+00
1
Step 231000
Ar 7.131215e-01 0.000000e+00 0.000000e+00
1
Step 232000
Ar 8.613661e-01 0.000000e+00 0.000000e+00
1
Step 233000
Ar 7.214926e-01 0.000000e+00 0.000000e+00
1
Step 234000
Ar 7.879461e-01 0.000000e+00 0.000000e+00
1
Step 235000
Ar 7.835181e-01 0.000000e+00 0.000000e+00
1
Step 236000
Ar 7.641917e-01 0.000000e+00 0.000000e+00
1
Step 237000
Ar 7.379238e-01 0.000000e+00 0.000000e+00
1
Step 238000
Ar 7.300367e-01 0.000000e+00 0.000000e+00
1
Step 239000
Ar 7.647826e-01 0.000000e+00 0.000000e+00
1
Step 240000
Ar 7.813082e-01 0.000000e+00 0.000000e+00
1
Step 241000
Ar 7.313581e-01 0.000000e+00 0.000000e+00
1
Step 242000
Ar 7.391147e-01 0.000000e+00 0.000000e+00
1
Step 243000
Ar 7.461014e-01 0.000000e+00 0.000000e+00
1
Step 244000
Ar 7.470583e-01 0.000000e+00 0.000000e+00
1
Step 245000
Ar 7.533211e-01 0.000000e+00 0.000000e+00
1
Step 246000
Ar 7.551813e-01 0.000000e+00 0.000000e+00
1
Step 247000
Ar 7.806685e-01 0.000000e+00 0.000000e+00
1
Step 248000
Ar 7.572175e-01 0.000000e+00 0.000000e+00
1
Step 249000
Ar 8.515325e-01 0.000000e+00 0.000000e+00
1
Step 250000
Ar 8.784807e-01 0.000000e+00 0.000000e+00
1
Step 251000
Ar 7.520780e-01 0.000000e+00 0.000000e+00
1
Step 252000
Ar 7.535539e-01 0.000000e+00 0.000000e+00
1
Step 253000
Ar 7.332509e-01 0.000000e+00 0.000000e+00
1
Step 254000
Ar 6.609093e-01 0.000000e+00 0.000000e+00
1
Step 255000
Ar 6.323702e-01 0.000000e+00 0.000000e+00
1
Step 256000
Ar 6.578490e-01 0.000000e+00 0.000000e+00
1
Step 257000
Ar 6.522183e-01 0.000000e+00 0.000000e+00
1
Step 258000
Ar 6.665975e-01 0.000000e+00 0.000000e+00
1
Step 259000
Ar 6.578731e-01 0.000000e+00 0.000000e+00
1
Step 260000
Ar 6.545926e-01 0.000000e+00 0.000000e+00
1
Step 261000
Ar 6.615463e-01 0.000000e+00 0.000000e+00
1
Step 262000
Ar 6.841112e-01 0.000000e+00 0.000000e+00
1
Step 263000
Ar 6.548359e-01 0.000000e+00 0.000000e+00
1
Step 264000
Ar 6.974355e-01 0.000000e+00 0.000000e+00
1
Step 265000
Ar 1.166888e+00 0.000000e+00 0.000000e+00
1
Step 266000
Ar 1.040618e+00 0.000000e+00 0.000000e+00
1
Step 267000
Ar 1.037836e+00 0.000000e+00 0.000000e+00
1
Step 268000
Ar 1.041642e+00 0.000000e+00 0.000000e+00
1
Step 269000
Ar 9.549872e-01 0.000000e+00 0.000000e+00
1
Step 270000
Ar 9.661567e-01 0.000000e+00 0.000000e+00
1
Step 271000
Ar 6.221443e-01 0.000000e+00 0.000000e+00
1
Step 272000
Ar 5.962199e-01 0.000000e+00 0.000000e+00
1
Step 273000
Ar 5.955863e-01 0.000000e+00 0.000000e+00
1
Step 274000
Ar 6.388382e-01 0.000000e+00 0.000000e+00
1
Step 275000
Ar 6.363465e-01 0.000000e+00 0.000000e+00
1
Step 276000
Ar 9.472798e-01 0.000000e+00 0.000000e+00
1
Step 277000
Ar 6.369712e-01 0.000000e+00 0.000000e+00
1
Step 278000
Ar 1.432194e+00 0.000000e+00 0.000000e+00
1
Step 279000
Ar 1.384049e+00 0.000000e+00 0.000000e+00
1
Step 280000
Ar 1.279335e+00 0.000000e+00 0.000000e+00
1
Step 281000
Ar 1.282587e+00 0.000000e+00 0.000000e+00
1
Step 282000
Ar 1.275938e+00 0.000000e+00 0.000000e+00
1
Step 283000
Ar 1.278869e+00 0.000000e+00 0.000000e+00
1
Step 284000
Ar 1.355445e+00 0.000000e+00 0.000000e+00
1
Step 285000
Ar 1.308522e+00 0.000000e+00 0.000000e+00
1
Step 286000
Ar 1.420360e+00 0.000000e+00 0.000000e+00
1
Step 287000
Ar 1.482842e+00 0.000000e+00 0.000000e+00
1
Step 288000
Ar 1.393970e+00 0.000000e+00 0.000000e+00
1
Step 289000
Ar 1.336526e+00 0.000000e+00 0.000000e+00
1
Step 290000
Ar 1.391925e+00 0.000000e+00 0.000000e+00
1
Step 291000
Ar 1.449772e+00 0.000000e+00 0.000000e+00
1
Step 292000
Ar 1.446486e+00 0.000000e+00 0.000000e+00
1
Step 293000
Ar 1.440305e+00 0.000000e+00 0.000000e+00
1
Step 294000
Ar 1.440377e+00 0.000000e+00 0.000000e+00
1
Step 295000
Ar 1.514706e+00 0.000000e+00 0.000000e+00
1
Step 296000
Ar 1.503675e+00 0.000000e+00 0.000000e+00
1
Step 297000
Ar 1.413689e+00 0.000000e+00 0.000000e+00
1
Step 298000
Ar 1.544543e+00 0.000000e+00 0.000000e+00
1
Step 299000
Ar 1.500872e+00 0.000000e+00 0.000000e+00
1
Step 300000
Ar 1.229327e+00 0.000000e+00 0.000000e+00
1
Step 301000
Ar 1.310322e+00 0.000000e+00 0.000000e+00
1
Step 302000
Ar 1.305062e+00 0.000000e+00 0.000000e+00
1
Step 303000
Ar 1.308219e+00 0.000000e+00 0.000000e+00
1
Step 304000
Ar 1.284777e+00 0.000000e+00 0.000000e+00
1
Step 305000
Ar 1.333083e+00 0.000000e+00 0.000000e+00
1
Step 306000
Ar 1.336185e+00 0.000000e+00 0.000000e+00
1
Step 307000
Ar 8.725428e-01 0.000000e+00 0.000000e+00
1
Step 308000
Ar 7.646337e-01 0.000000e+00 0.000000e+00
1
Step 309000
Ar 7.019433e-01 0.000000e+00 0.000000e+00
1
Step 310000
Ar 6.909167e-01 0.000000e+00 0.000000e+00
1
Step 311000
Ar 6.999598e-01 0.000000e+00 0.000000e+00
1
Step 312000
Ar 3.269550e-01 0.000000e+00 0.000000e+00
1
Step 313000
Ar 3.548165e-01 0.000000e+00 0.000000e+00
1
Step 314000
Ar 3.424347e-01 0.000000e+00 0.000000e+00
1
Step 315000
Ar 3.465491e-01 0.000000e+00 0.000000e+00
1
Step 316000
Ar 3.436350e-01 0.000000e+00 0.000000e+00
1
Step 317000
Ar 3.672191e-01 0.000000e+00 0.000000e+00
1
Step 318000
Ar 4.408574e-01 0.000000e+00 0.000000e+00
1
Step 319000
Ar 3.947900e-01 0.000000e+00 0.000000e+00
1
Step 320000
Ar 5.672820e-01 0.000000e+00 0.000000e+00
1
Step 321000
Ar 5.539244e-01 0.000000e+00 0.000000e+00
1
Step 322000
Ar 4.848394e-01 0.000000e+00 0.000000e+00
1
Step 323000
Ar 5.011976e-01 0.000000e+00 0.000000e+00
1
Step 324000
Ar 5.497759e-01 0.000000e+00 0.000000e+00
1
Step 325000
Ar 4.938272e-01 0.000000e+00 0.000000e+00
1
Step 326000
Ar 3.373351e-01 0.000000e+00 0.000000e+00
1
Step 327000
Ar 3.387649e-01 0.000000e+00 0.000000e+00
1
Step 328000
Ar 3.202077e-01 0.000000e+00 0.000000e+00
1
Step 329000
Ar 3.218461e-01 0.000000e+00 0.000000e+00
1
Step 330000
Ar 2.760421e-01 0.000000e+00 0.000000e+00
1
Step 331000
Ar 2.988450e-01 0.000000e+00 0.000000e+00
1
Step 332000
Ar 1.887149e-01 0.000000e+00 0.000000e+00
1
Step 333000
Ar 2.355462e-01 0.000000e+00 0.000000e+00
1
Step 334000
Ar 2.854785e-01 0.000000e+00 0.000000e+00
1
Step 335000
Ar 4.371458e-01 0.000000e+00 0.000000e+00
1
Step 336000
Ar 5.518711e-01 0.000000e+00 0.000000e+00
1
Step 337000
Ar 4.611159e-01 0.000000e+00 0.000000e+00
1
Step 338000
Ar 4.045128e-01 0.000000e+00 0.000000e+00
1
Step 339000
Ar 4.102455e-01 0.000000e+00 0.000000e+00
1
Step 340000
Ar 4.007231e-01 0.000000e+00 0.000000e+00
1
Step 341000
Ar 4.102785e-01 0.000000e+00 0.000000e+00
1
Step 342000
Ar 5.151325e-01 0.000000e+00 0.000000e+00
1
Step 343000
Ar 4.869602e-01 0.000000e+00 0.000000e+00
1
Step 344000
Ar 5.181541e-01 0.000000e+00 0.000000e+00
1
Step 345000
Ar 5.343900e-01 0.000000e+00 0.000000e+00
1
Step 346000
Ar 5.357706e-01 0.000000e+00 0.000000e+00
1
Step 347000
Ar 5.686713e-01 0.000000e+00 0.000000e+00
1
Step 348000
Ar 5.622068e-01 0.000000e+00 0.000000e+00
1
Step 349000
Ar 4.098825e-01 0.000000e+00 0.000000e+00
1
Step 350000
Ar 2.369081e-01 0.000000e+00 0.000000e+00
1
Step 351000
Ar 2.329482e-01 0.000000e+00 0.000000e+00
1
Step 352000
Ar -1.077309e+00 0.000000e+00 0.000000e+00
1
Step 353000
Ar -1.259459e+00 0.000000e+00 0.000000e+00
1
Step 354000
Ar -1.183519e+00 0.000000e+00 0.000000e+00
1
Step 355000
Ar -8.948049e-01 0.000000e+00 0.000000e+00
1
Step 356000
Ar -1.098640e+00 0.000000e+00 0.000000e+00
1
Step 357000
Ar -1.019506e+00 0.000000e+00 0.000000e+00
1
Step 358000
Ar -9.668091e-01 0.000000e+00 0.000000e+00
1
Step 359000
Ar -8.809279e-01 0.000000e+00 0.000000e+00
1
Step 360000
Ar -8.912798e-01 0.000000e+00 0.000000e+00
1
Step 361000
Ar -8.031921e-01 0.000000e+00 0.000000e+00
1
Step 362000
Ar -2.380995e-01 0.000000e+00 0.000000e+00
1
Step 363000
Ar -4.833156e-01 0.000000e+00 0.000000e+00
1
Step 364000
Ar -4.453253e-01 0.000000e+00 0.000000e+00
1
Step 365000
Ar -5.114299e-01 0.000000e+00 0.000000e+00
1
Step 366000
Ar -2.516659e-01 0.000000e+00 0.000000e+00
1
Step 367000
Ar -1.120551e-01 0.000000e+00 0.000000e+00
1
Step 368000
Ar -1.842509e-01 0.000000e+00 0.000000e+00
1
Step 369000
Ar -2.003511e-01 0.000000e+00 0.000000e+00
1
Step 370000
Ar 4.190135e-02 0.000000e+00 0.000000e+00
1
Step 371000
Ar 3.224487e-02 0.000000e+00 0.000000e+00
1
Step 372000
Ar 2.003985e-02 0.000000e+00 0.000000e+00
1
Step 373000
Ar 2.292868e-02 0.000000e+00 0.000000e+00
1
Step 374000
Ar 1.077033e-01 0.000000e+00 0.000000e+00
1
Step 375000
Ar -1.379543e-02 0.000000e+00 0.000000e+00
1
Step 376000
Ar 8.492940e-02 0.000000e+00 0.000000e+00
1
Step 377000
Ar 7.816611e-02 0.000000e+00 0.000000e+00
1
Step 378000
Ar 1.136829e-01 0.000000e+00 0.000000e+00
1
Step 379000
Ar -2.205511e-01 0.000000e+00 0.000000e+00
1
Step 380000
Ar -4.731262e-01 0.000000e+00 0.000000e+00
1
Step 381000
Ar -4.347662e-01 0.000000e+00 0.000000e+00
1
Step 382000
Ar -8.090689e-01 0.000000e+00 0.000000e+00
1
Step 383000
Ar -8.187211e-01 0.000000e+00 0.000000e+00
1
Step 384000
Ar -9.799030e-01 0.000000e+00 0.000000e+00
1
Step 385000
Ar -1.092175e+00 0.000000e+00 0.000000e+00
1
Step 386000
Ar -1.022012e+00 0.000000e+00 0.000000e+00
1
Step 387000
Ar -1.027203e+00 0.000000e+00 0.000000e+00
1
Step 388000
Ar -1.117004e+00 0.000000e+00 0.000000e+00
1
Step 389000
Ar -9.706552e-01 0.000000e+00 0.000000e+00
1
Step 390000
Ar -1.110606e+00 0.000000e+00 0.000000e+00
1
Step 391000
Ar -1.124469e+00 0.000000e+00 0.000000e+00
1
Step 392000
Ar -1.126587e+00 0.000000e+00 0.000000e+00
1
Step 393000
Ar -1.132552e+00 0.000000e+00 0.000000e+00
1
Step 394000
Ar -1.128111e+00 0.000000e+00 0.000000e+00
1
Step 395000
Ar -1.254915e+00 0.000000e+00 0.000000e+00
1
Step 396000
Ar -1.336430e+00 0.000000e+00 0.000000e+00
1
Step 397000
Ar -1.338310e+00 0.000000e+00 0.000000e+00
1
Step 398000
Ar -1.167581e+00 0.000000e+00 0.000000e+00
1
Step 399000
Ar -1.237095e+00 0.000000e+00 0.000000e+00
1
Step 400000
Ar -1.281017e+00 0.000000e+00 0.000000e+00
1
Step 401000
Ar -1.168032e+00 0.000000e+00 0.000000e+00
1
Step 402000
Ar -8.330885e-01 0.000000e+00 0.000000e+00
1
Step 403000
Ar -9.385646e-01 0.000000e+00 0.000000e+00
1
Step 404000
Ar -7.248963e-01 0.000000e+00 0.000000e+00
1
Step 405000
Ar -5.403595e-01 0.000000e+00 0.000000e+00
1
Step 406000
Ar -7.417822e-01 0.000000e+00 0.000000e+00
1
Step 407000
Ar -7.466047e-01 0.000000e+00 0.000000e+00
1
Step 408000
Ar -7.560064e-01 0.000000e+00 0.000000e+00
1
Step 409000
Ar -7.449754e-01 0.000000e+00 0.000000e+00
1
Step 410000
Ar -4.977458e-01 0.000000e+00 0.000000e+00
1
Step 411000
Ar -8.370910e-01 0.000000e+00 0.000000e+00
1
Step 412000
Ar -8.199461e-01 0.000000e+00 0.000000e+00
1
Step 413000
Ar -8.864653e-01 0.000000e+00 0.000000e+00
1
Step 414000
Ar -8.641854e-01 0.000000e+00 0.000000e+00
1
Step 415000
Ar -8.677556e-01 0.000000e+00 0.000000e+00
1
Step 416000
Ar -8.669106e-01 0.000000e+00 0.000000e+00
1
Step 417000
Ar -8.644557e-01 0.000000e+00 0.000000e+00
1
Step 418000
Ar -9.103445e-01 0.000000e+00 0.000000e+00
1
Step 419000
Ar -9.167952e-01 0.000000e+00 0.000000e+00
1
Step 420000
Ar -6.578111e-01 0.000000e+00 0.000000e+00
1
Step 421000
Ar -6.641714e-01 0.000000e+00 0.000000e+00
1
Step 422000
Ar -6.600491e-01 0.000000e+00 0.000000e+00
1
Step 423000
Ar -5.484131e-01 0.000000e+00 0.000000e+00
1
Step 424000
Ar -7.490866e-01 0.000000e+00 0.000000e+00
1
Step 425000
Ar -6.996019e-01 0.000000e+00 0.000000e+00
1
Step 426000
Ar -7.502166e-01 0.000000e+00 0.000000e+00
1
Step 427000
Ar -7.486103e-01 0.000000e+00 0.000000e+00
1
Step 428000
Ar -7.007900e-01 0.000000e+00 0.000000e+00
1
Step 429000
Ar -6.675119e-01 0.000000e+00 0.000000e+00
1
Step 430000
Ar -6.653977e-01 0.000000e+00 0.000000e+00
1
Step 431000
Ar -6.357357e-01 0.000000e+00 0.000000e+00
1
Step 432000
Ar -7.515810e-01 0.000000e+00 0.000000e+00
1
Step 433000
Ar -4.082428e-01 0.000000e+00 0.000000e+00
1
Step 434000
Ar -6.793678e-01 0.000000e+00 0.000000e+00
1
Step 435000
Ar -5.979008e-01 0.000000e+00 0.000000e+00
1
Step 436000
Ar -5.724107e-01 0.000000e+00 0.000000e+00
1
Step 437000
Ar -5.061571e-01 0.000000e+00 0.000000e+00
1
Step 438000
Ar -5.047288e-01 0.000000e+00 0.000000e+00
1
Step 439000
Ar -4.933003e-01 0.000000e+00 0.000000e+00
1
Step 440000
Ar -6.197198e-01 0.000000e+00 0.000000e+00
1
Step 441000
Ar -6.170523e-01 0.000000e+00 0.000000e+00
1
Step 442000
Ar -6.264663e-01 0.000000e+00 0.000000e+00
1
Step 443000
Ar -7.557455e-01 0.000000e+00 0.000000e+00
1
Step 444000
Ar -6.584585e-01 0.000000e+00 0.000000e+00
1
Step 445000
Ar -5.790951e-01 0.000000e+00 0.000000e+00
1
Step 446000
Ar -5.544664e-01 0.000000e+00 0.000000e+00
1
Step 447000
Ar -7.488187e-01 0.000000e+00 0.000000e+00
1
Step 448000
Ar -6.874378e-01 0.000000e+00 0.000000e+00
1
Step 449000
Ar -6.810579e-01 0.000000e+00 0.000000e+00
1
Step 450000
Ar -6.642524e-01 0.000000e+00 0.000000e+00
1
Step 451000
Ar -6.767449e-01 0.000000e+00 0.000000e+00
1
Step 452000
Ar -7.273112e-01 0.000000e+00 0.000000e+00
1
Step 453000
Ar -6.349723e-01 0.000000e+00 0.000000e+00
1
Step 454000
Ar -9.860547e-01 0.000000e+00 0.000000e+00
1
Step 455000
Ar -9.869221e-01 0.000000e+00 0.000000e+00
1
Step 456000
Ar -9.649007e-01 0.000000e+00 0.000000e+00
1
Step 457000
Ar -1.052604e+00 0.000000e+00 0.000000e+00
1
Step 458000
Ar -1.055408e+00 0.000000e+00 0.000000e+00
1
Step 459000
Ar -9.709260e-01 0.000000e+00 0.000000e+00
1
Step 460000
Ar -9.722275e-01 0.000000e+00 0.000000e+00
1
Step 461000
Ar -9.889509e-01 0.000000e+00 0.000000e+00
1
Step 462000
Ar -9.924735e-01 0.000000e+00 0.000000e+00
1
Step 463000
Ar -1.011548e+00 0.000000e+00 0.000000e+00
1
Step 464000
Ar -8.946003e-01 0.000000e+00 0.000000e+00
1
Step 465000
Ar -8.990994e-01 0.000000e+00 0.000000e+00
1
Step 466000
Ar -9.011988e-01 0.000000e+00 0.000000e+00
1
Step 467000
Ar -9.203430e-01 0.000000e+00 0.000000e+00
1
Step 468000
Ar -1.142914e+00 0.000000e+00 0.000000e+00
1
Step 469000
Ar -1.304958e+00 0.000000e+00 0.000000e+00
1
Step 470000
Ar -1.303470e+00 0.000000e+00 0.000000e+00
1
Step 471000
Ar -1.194603e+00 0.000000e+00 0.000000e+00
1
Step 472000
Ar -1.050105e+00 0.000000e+00 0.000000e+00
1
Step 473000
Ar -1.173951e+00 0.000000e+00 0.000000e+00
1
Step 474000
Ar -1.351632e+00 0.000000e+00 0.000000e+00
1
Step 475000
Ar -1.231805e+00 0.000000e+00 0.000000e+00
1
Step 476000
Ar -1.226163e+00 0.000000e+00 0.000000e+00
1
Step 477000
Ar -1.140732e+00 0.000000e+00 0.000000e+00
1
Step 478000
Ar -1.263823e+00 0.000000e+00 0.000000e+00
1
Step 479000
Ar -1.248188e+00 0.000000e+00 0.000000e+00
1
Step 480000
Ar -1.270416e+00 0.000000e+00 0.000000e+00
1
Step 481000
Ar -1.364926e+00 0.000000e+00 0.000000e+00
1
Step 482000
Ar -1.250380e+00 0.000000e+00 0.000000e+00
1
Step 483000
Ar -1.063465e+00 0.000000e+00 0.000000e+00
1
Step 484000
Ar -1.052736e+00 0.000000e+00 0.000000e+00
1
Step 485000
Ar -1.064217e+00 0.000000e+00 0.000000e+00
1
Step 486000
Ar -1.120707e+00 0.000000e+00 0.000000e+00
1
Step 487000
Ar -1.189053e+00 0.000000e+00 0.000000e+00
1
Step 488000
Ar -1.193678e+00 0.000000e+00 0.000000e+00
1
Step 489000
Ar -1.251004e+00 0.000000e+00 0.000000e+00
1
Step 490000
Ar -1.017944e+00 0.000000e+00 0.000000e+00
1
Step 491000
Ar -9.713394e-01 0.000000e+00 0.000000e+00
1
Step 492000
Ar -1.379769e+00 0.000000e+00 0.000000e+00
1
Step 493000
Ar -1.416114e+00 0.000000e+00 0.000000e+00
1
Step 494000
Ar -1.445015e+00 0.000000e+00 0.000000e+00
1
Step 495000
Ar -1.427769e+00 0.000000e+00 0.000000e+00
1
Step 496000
Ar -1.429626e+00 0.000000e+00 0.000000e+00
1
Step 497000
Ar -1.454764e+00 0.000000e+00 0.000000e+00
1
Step 498000
Ar -1.249094e+00 0.000000e+00 0.000000e+00
1
Step 499000
Ar -1.276516e+00 0.000000e+00 0.000000e+00
1
Step 500000
Ar -1.268210e+00 0.000000e+00 0.000000e+00
1
Step 501000
Ar -1.429235e+00 0.000000e+00 0.000000e+00
1
Step 502000
Ar -1.342124e+00 0.000000e+00 0.000000e+00
1
Step 503000
Ar -1.321171e+00 0.000000e+00 0.000000e+00
1
Step 504000
Ar -1.337918e+00 0.000000e+00 0.000000e+00
1
Step 505000
Ar -1.338296e+00 0.000000e+00 0.000000e+00
1
Step 506000
Ar -1.369804e+00 0.000000e+00 0.000000e+00
1
Step 507000
Ar -1.355296e+00 0.000000e+00 0.000000e+00
1
Step 508000
Ar -1.448590e+00 0.000000e+00 0.000000e+00
1
Step 509000
Ar -1.329879e+00 0.000000e+00 0.000000e+00
1
Step 510000
Ar -1.444331e+00 0.000000e+00 0.000000e+00
1
Step 511000
Ar -1.270086e+00 0.000000e+00 0.000000e+00
1
Step 512000
Ar -1.287724e+00 0.000000e+00 0.000000e+00
1
Step 513000
Ar -1.164743e+00 0.000000e+00 0.000000e+00
1
Step 514000
Ar -1.152054e+00 0.000000e+00 0.000000e+00
1
Step 515000
Ar -1.071944e+00 0.000000e+00 0.000000e+00
1
Step 516000
Ar -1.045866e+00 0.000000e+00 0.000000e+00
1
Step 517000
Ar -1.136922e+00 0.000000e+00 0.000000e+00
1
Step 518000
Ar -1.047398e+00 0.000000e+00 0.000000e+00
1
Step 519000
Ar -1.075826e+00 0.000000e+00 0.000000e+00
1
Step 520000
Ar -1.141166e+00 0.000000e+00 0.000000e+00
1
Step 521000
Ar -1.117357e+00 0.000000e+00 0.000000e+00
1
Step 522000
Ar -1.140916e+00 0.000000e+00 0.000000e+00
1
Step 523000
Ar -1.136100e+00 0.000000e+00 0.000000e+00
1
Step 524000
Ar -1.079119e+00 0.000000e+00 0.000000e+00
1
Step 525000
Ar -1.140508e+00 0.000000e+00 0.000000e+00
1
Step 526000
Ar -1.139879e+00 0.000000e+00 0.000000e+00
1
Step 527000
Ar -1.143414e+00 0.000000e+00 0.000000e+00
1
Step 528000
Ar -3.749720e-02 0.000000e+00 0.000000e+00
1
Step 529000
Ar -1.166203e-01 0.000000e+00 0.000000e+00
1
Step 530000
Ar 8.122049e-02 0.000000e+00 0.000000e+00
1
Step 531000
Ar 8.372644e-02 0.000000e+00 0.000000e+00
1
Step 532000
Ar -1.366885e-01 0.000000e+00 0.000000e+00
1
Step 533000
Ar -1.331191e-01 0.000000e+00 0.000000e+00
1
Step 534000
Ar -1.428758e-01 0.000000e+00 0.000000e+00
1
Step 535000
Ar -1.409666e-01 0.000000e+00 0.000000e+00
1
Step 536000
Ar -1.654415e-01 0.000000e+00 0.000000e+00
1
Step 537000
Ar -1.583113e-01 0.000000e+00 0.000000e+00
1
Step 538000
Ar -1.660503e-01 0.000000e+00 0.000000e+00
1
Step 539000
Ar -3.141767e-01 0.000000e+00 0.000000e+00
1
Step 540000
Ar -4.135008e-01 0.000000e+00 0.000000e+00
1
Step 541000
Ar -3.268817e-01 0.000000e+00 0.000000e+00
1
Step 542000
Ar -2.850526e-01 0.000000e+00 0.000000e+00
1
Step 543000
Ar -3.874674e-01 0.000000e+00 0.000000e+00
1
Step 544000
Ar -2.021109e-02 0.000000e+00 0.000000e+00
1
Step 545000
Ar -1.146049e-01 0.000000e+00 0.000000e+00
1
Step 546000
Ar -3.111476e-02 0.000000e+00 0.000000e+00
1
Step 547000
Ar -1.248196e-02 0.000000e+00 0.000000e+00
1
Step 548000
Ar -1.097819e-01 0.000000e+00 0.000000e+00
1
Step 549000
Ar -1.067266e-01 0.000000e+00 0.000000e+00
1
Step 550000
Ar -1.056892e-01 0.000000e+00 0.000000e+00
1
Step 551000
Ar -1.097523e-01 0.000000e+00 0.000000e+00
1
Step 552000
Ar -1.413183e-01 0.000000e+00 0.000000e+00
1
Step 553000
Ar -1.351269e-01 0.000000e+00 0.000000e+00
1
Step 554000
Ar -1.299533e-01 0.000000e+00 0.000000e+00
1
Step 555000
Ar -6.317460e-01 0.000000e+00 0.000000e+00
1
Step 556000
Ar -6.324821e-01 0.000000e+00 0.000000e+00
1
Step 557000
Ar -7.616347e-01 0.000000e+00 0.000000e+00
1
Step 558000
Ar -7.252030e-01 0.000000e+00 0.000000e+00
1
Step 559000
Ar -6.514697e-01 0.000000e+00 0.000000e+00
1
Step 560000
Ar -7.236376e-01 0.000000e+00 0.000000e+00
1
Step 561000
Ar -7.735114e-01 0.000000e+00 0.000000e+00
1
Step 562000
Ar -6.995875e-01 0.000000e+00 0.000000e+00
1
Step 563000
Ar -7.877827e-01 0.000000e+00 0.000000e+00
1
Step 564000
Ar -7.431156e-01 0.000000e+00 0.000000e+00
1
Step 565000
Ar -7.122263e-01 0.000000e+00 0.000000e+00
1
Step 566000
Ar -3.866009e-01 0.000000e+00 0.000000e+00
1
Step 567000
Ar -4.376770e-01 0.000000e+00 0.000000e+00
1
Step 568000
Ar -4.077822e-01 0.000000e+00 0.000000e+00
1
Step 569000
Ar -2.633584e-01 0.000000e+00 0.000000e+00
1
Step 570000
Ar -4.627907e-01 0.000000e+00 0.000000e+00
1
Step 571000
Ar -4.033425e-01 0.000000e+00 0.000000e+00
1
Step 572000
Ar -4.039436e-01 0.000000e+00 0.000000e+00
1
Step 573000
Ar -4.527416e-01 0.000000e+00 0.000000e+00
1
Step 574000
Ar -3.713807e-01 0.000000e+00 0.000000e+00
1
Step 575000
Ar -3.549987e-01 0.000000e+00 0.000000e+00
1
Step 576000
Ar -2.826597e-01 0.000000e+00 0.000000e+00
1
Step 577000
Ar -2.775006e-01 0.000000e+00 0.000000e+00
1
Step 578000
Ar -2.841900e-01 0.000000e+00 0.000000e+00
1
Step 579000
Ar -2.416632e-01 0.000000e+00 0.000000e+00
1
Step 580000
Ar -1.840896e-01 0.000000e+00 0.000000e+00
1
Step 581000
Ar -2.049686e-01 0.000000e+00 0.000000e+00
1
Step 582000
Ar -9.423239e-01 0.000000e+00 0.000000e+00
1
Step 583000
Ar -9.207643e-01 0.000000e+00 0.000000e+00
1
Step 584000
Ar -8.269667e-01 0.000000e+00 0.000000e+00
1
Step 585000
Ar -5.367989e-01 0.000000e+00 0.000000e+00
1
Step 586000
Ar -5.343442e-01 0.000000e+00 0.000000e+00
1
Step 587000
Ar -5.850941e-01 0.000000e+00 0.000000e+00
1
Step 588000
Ar -5.147959e-01 0.000000e+00 0.000000e+00
1
Step 589000
Ar -4.283051e-01 0.000000e+00 0.000000e+00
1
Step 590000
Ar -3.625647e-01 0.000000e+00 0.000000e+00
1
Step 591000
Ar -6.329601e-01 0.000000e+00 0.000000e+00
1
Step 592000
Ar -1.315945e-01 0.000000e+00 0.000000e+00
1
Step 593000
Ar -1.000140e-01 0.000000e+00 0.000000e+00
1
Step 594000
Ar -3.952412e-02 0.000000e+00 0.000000e+00
1
Step 595000
Ar -8.218058e-02 0.000000e+00 0.000000e+00
1
Step 596000
Ar -1.073681e-01 0.000000e+00 0.000000e+00
1
Step 597000
Ar -2.188932e-01 0.000000e+00 0.000000e+00
1
Step 598000
Ar -5.739511e-01 0.000000e+00 0.000000e+00
1
Step 599000
Ar -5.751420e-01 0.000000e+00 0.000000e+00
1
Step 600000
Ar -6.160795e-01 0.000000e+00 0.000000e+00
1
Step 601000
Ar -5.980914e-01 0.000000e+00 0.000000e+00
1
Step 602000
Ar -6.413617e-01 0.000000e+00 0.000000e+00
1
Step 603000
Ar -7.355937e-01 0.000000e+00 0.000000e+00
1
Step 604000
Ar -7.686751e-01 0.000000e+00 0.000000e+00
1
Step 605000
Ar -7.327488e-01 0.000000e+00 0.000000e+00
1
Step 606000
Ar -7.350892e-01 0.000000e+00 0.000000e+00
1
Step 607000
Ar -7.869954e-01 0.000000e+00 0.000000e+00
1
Step 608000
Ar -8.808918e-01 0.000000e+00 0.000000e+00
1
Step 609000
Ar -8.686055e-01 0.000000e+00 0.000000e+00
1
Step 610000
Ar -8.644898e-01 0.000000e+00 0.000000e+00
1
Step 611000
Ar -8.643681e-01 0.000000e+00 0.000000e+00
1
Step 612000
Ar -8.825994e-01 0.000000e+00 0.000000e+00
1
Step 613000
Ar -9.262855e-01 0.000000e+00 0.000000e+00
1
Step 614000
Ar -8.599773e-01 0.000000e+00 0.000000e+00
1
Step 615000
Ar -9.373405e-01 0.000000e+00 0.000000e+00
1
Step 616000
Ar -9.212890e-01 0.000000e+00 0.000000e+00
1
Step 617000
Ar -7.746924e-01 0.000000e+00 0.000000e+00
1
Step 618000
Ar -8.650351e-01 0.000000e+00 0.000000e+00
1
Step 619000
Ar -8.549252e-01 0.000000e+00 0.000000e+00
1
Step 620000
Ar -1.055945e+00 0.000000e+00 0.000000e+00
1
Step 621000
Ar -9.969283e-01 0.000000e+00 0.000000e+00
1
Step 622000
Ar -1.144020e+00 0.000000e+00 0.000000e+00
1
Step 623000
Ar -1.144467e+00 0.000000e+00 0.000000e+00
1
Step 624000
Ar -1.137031e+00 0.000000e+00 0.000000e+00
1
Step 625000
Ar -1.147766e+00 0.000000e+00 0.000000e+00
1
Step 626000
Ar -1.139767e+00 0.000000e+00 0.000000e+00
1
Step 627000
Ar -6.982875e-01 0.000000e+00 0.000000e+00
1
Step 628000
Ar -7.597598e-01 0.000000e+00 0.000000e+00
1
Step 629000
Ar -8.438208e-01 0.000000e+00 0.000000e+00
1
Step 630000
Ar -9.149593e-01 0.000000e+00 0.000000e+00
1
Step 631000
Ar -9.432502e-01 0.000000e+00 0.000000e+00
1
Step 632000
Ar -9.759048e-01 0.000000e+00 0.000000e+00
1
Step 633000
Ar -8.598978e-01 0.000000e+00 0.000000e+00
1
Step 634000
Ar -1.009227e+00 0.000000e+00 0.000000e+00
1
Step 635000
Ar -1.012296e+00 0.000000e+00 0.000000e+00
1
Step 636000
Ar -7.871496e-01 0.000000e+00 0.000000e+00
1
Step 637000
Ar -7.827231e-01 0.000000e+00 0.000000e+00
1
Step 638000
Ar -8.102718e-01 0.000000e+00 0.000000e+00
1
Step 639000
Ar -8.056300e-01 0.000000e+00 0.000000e+00
1
Step 640000
Ar -9.250199e-01 0.000000e+00 0.000000e+00
1
Step 641000
Ar -8.924897e-01 0.000000e+00 0.000000e+00
1
Step 642000
Ar -7.856247e-01 0.000000e+00 0.000000e+00
1
Step 643000
Ar -7.938703e-01 0.000000e+00 0.000000e+00
1
Step 644000
Ar -3.007485e-01 0.000000e+00 0.000000e+00
1
Step 645000
Ar -2.954004e-01 0.000000e+00 0.000000e+00
1
Step 646000
Ar -4.348274e-01 0.000000e+00 0.000000e+00
1
Step 647000
Ar -4.085973e-01 0.000000e+00 0.000000e+00
1
Step 648000
Ar -4.213628e-01 0.000000e+00 0.000000e+00
1
Step 649000
Ar -4.283668e-01 0.000000e+00 0.000000e+00
1
Step 650000