1
Step 120000
Ar 9.089539e-01 0.000000e+00 0.000000e+00
1
Step 121000
Ar 1.129987e+00 0.000000e+00 0.000000e+00
1
Step 122000
Ar 1.202110e+00 0.000000e+00 0.000000e+00
1
Step 123000
Ar 1.162500e+00 0.000000e+00 0.000000e+00
1
Step 124000
Ar 1.158317e+00 0.000000e+00 0.000000e+00
1
Step 125000
Ar 6.824856e-01 0.000000e+00 0.000000e+00
1
Step 126000
Ar 9.151145e-01 0.000000e+00 0.000000e+00
1
Step 127000
Ar 8.289943e-01 0.000000e+00 0.000000e+00
1
Step 128000
Ar 8.939222e-01 0.000000e+00 0.000000e+00
1
Step 129000
Ar 8.988362e-01 0.000000e+00 0.000000e+00
1
Step 130000
Ar 8.703034e-01 0.000000e+00 0.000000e+00
1
Step 131000
Ar 8.593192e-01 0.000000e+00 0.000000e+00
1
Step 132000
Ar 8.507936e-01 0.000000e+00 0.000000e+00
1
Step 133000
Ar 1.063767e+00 0.000000e+00 0.000000e+00
1
Step 134000
Ar 1.102704e+00 0.000000e+00 0.000000e+00
1
Step 135000
Ar 9.740510e-01 0.000000e+00 0.000000e+00
1
Step 136000
Ar 7.155628e-01 0.000000e+00 0.000000e+00
1
Step 137000
Ar 6.368849e-01 0.000000e+00 0.000000e+00
1
Step 138000
Ar 8.712885e-01 0.000000e+00 0.000000e+00
1
Step 139000
Ar 8.765396e-01 0.000000e+00 0.000000e+00
1
Step 140000
Ar 8.255696e-01 0.000000e+00 0.000000e+00
1
Step 141000
Ar 8.006833e-01 0.000000e+00 0.000000e+00
1
Step 142000
Ar 7.789910e-01 0.000000e+00 0.000000e+00
1
Step 143000
Ar 8.310019e-01 0.000000e+00 0.000000e+00
1
Step 144000
Ar 7.101829e-01 0.000000e+00 0.000000e+00
1
Step 145000
Ar 7.057842e-01 0.000000e+00 0.000000e+00
1
Step 146000
Ar 7.883702e-01 0.000000e+00 0.000000e+00
1
Step 147000
Ar 7.764987e-01 0.000000e+00 0.000000e+00
1
Step 148000
Ar 7.394410e-01 0.000000e+00 0.000000e+00
1
Step 149000
Ar 7.404550e-01 0.000000e+00 0.000000e+00
1
Step 150000
Ar 7.451671e-01 0.000000e+00 0.000000e+00
1
Step 151000
Ar 9.674526e-01 0.000000e+00 0.000000e+00
1
Step 152000
Ar 9.689898e-01 0.000000e+00 0.000000e+00
1
Step 153000
Ar 9.662970e-01 0.000000e+00 0.000000e+00
1
Step 154000
Ar 9.430800e-01 0.000000e+00 0.000000e+00
1
Step 155000
Ar 9.439281e-01 0.000000e+00 0.000000e+00
1
Step 156000
Ar 8.982354e-01 0.000000e+00 0.000000e+00
1
Step 157000
Ar 8.710782e-01 0.000000e+00 0.000000e+00
1
Step 158000
Ar 8.431488e-01 0.000000e+00 0.000000e+00
1
Step 159000
Ar 9.837742e-01 0.000000e+00 0.000000e+00
1
Step 160000
Ar 1.163552e+00 0.000000e+00 0.000000e+00
1
Step 161000
Ar 1.176932e+00 0.000000e+00 0.000000e+00
1
Step 162000
Ar 1.162391e+00 0.000000e+00 0.000000e+00
1
Step 163000
Ar 1.079795e+00 0.000000e+00 0.000000e+00
1
Step 164000
Ar 1.066230e+00 0.000000e+00 0.000000e+00
1
Step 165000
Ar 1.059207e+00 0.000000e+00 0.000000e+00
1
Step 166000
Ar 1.114646e+00 0.000000e+00 0.000000e+00
1
Step 167000
Ar 1.055933e+00 0.000000e+00 0.000000e+00
1
Step 168000
Ar 1.056212e+00 0.000000e+00 0.000000e+00
1
Step 169000
Ar 1.043873e+00 0.000000e+00 0.000000e+00
1
Step 170000
Ar 1.051145e+00 0.000000e+00 0.000000e+00
1
Step 171000
Ar 1.092362e+00 0.000000e+00 0.000000e+00
1
Step 172000
Ar 1.136360e+00 0.000000e+00 0.000000e+00
1
Step 173000
Ar 1.016969e+00 0.000000e+00 0.000000e+00
1
Step 174000
Ar 1.024882e+00 0.000000e+00 0.000000e+00
1
Step 175000
Ar 1.104088e+00 0.000000e+00 0.000000e+00
1
Step 176000
Ar 1.103785e+00 0.000000e+00 0.000000e+00
1
Step 177000
Ar 1.166494e+00 0.000000e+00 0.000000e+00
1
Step 178000
Ar 1.284012e+00 0.000000e+00 0.000000e+00
1
Step 179000
Ar 1.271964e+00 0.000000e+00 0.000000e+00
1
Step 180000
Ar 1.207530e+00 0.000000e+00 0.000000e+00
1
Step 181000
Ar 1.201685e+00 0.000000e+00 0.000000e+00
1
Step 182000
Ar 1.309720e+00 0.000000e+00 0.000000e+00
1
Step 183000
Ar 1.274174e+00 0.000000e+00 0.000000e+00
1
Step 184000
Ar 1.278408e+00 0.000000e+00 0.000000e+00
1
Step 185000
Ar 1.108111e+00 0.000000e+00 0.000000e+00
1
Step 186000
Ar 1.308835e+00 0.000000e+00 0.000000e+00
1
Step 187000
Ar 1.276091e+00 0.000000e+00 0.000000e+00
1
Step 188000
Ar 1.294289e+00 0.000000e+00 0.000000e+00
1
Step 189000
Ar 1.316406e+00 0.000000e+00 0.000000e+00
1
Step 190000
Ar 1.282305e+00 0.000000e+00 0.000000e+00
1
Step 191000
Ar 1.290159e+00 0.000000e+00 0.000000e+00
1
Step 192000
Ar 1.285124e+00 0.000000e+00 0.000000e+00
1
Step 193000
Ar 1.180438e+00 0.000000e+00 0.000000e+00
1
Step 194000
Ar 1.212076e+00 0.000000e+00 0.000000e+00
1
Step 195000
Ar 1.271596e+00 0.000000e+00 0.000000e+00
1
Step 196000
Ar 1.279132e+00 0.000000e+00 0.000000e+00
1
Step 197000
Ar 8.315840e-01 0.000000e+00 0.000000e+00
1
Step 198000
Ar 8.290465e-01 0.000000e+00 0.000000e+00
1
Step 199000
Ar 9.031809e-01 0.000000e+00 0.000000e+00
1
Step 200000
Ar 9.041052e-01 0.000000e+00 0.000000e+00
1
Step 201000
Ar -9.410938e-01 0.000000e+00 0.000000e+00
1
Step 202000
Ar -9.296340e-01 0.000000e+00 0.000000e+00
1
Step 203000
Ar -9.832585e-01 0.000000e+00 0.000000e+00
1
Step 204000
Ar -8.326661e-01 0.000000e+00 0.000000e+00
1
Step 205000
Ar -1.162180e+00 0.000000e+00 0.000000e+00
1
Step 206000
Ar -1.205111e+00 0.000000e+00 0.000000e+00
1
Step 207000
Ar -1.186793e+00 0.000000e+00 0.000000e+00
1
Step 208000
Ar -1.213104e+00 0.000000e+00 0.000000e+00
1
Step 209000
Ar -1.182011e+00 0.000000e+00 0.000000e+00
1
Step 210000
Ar -9.115466e-01 0.000000e+00 0.000000e+00
1
Step 211000
Ar -1.000614e+00 0.000000e+00 0.000000e+00
1
Step 212000
Ar -1.320051e+00 0.000000e+00 0.000000e+00
1
Step 213000
Ar -1.212340e+00 0.000000e+00 0.000000e+00
1
Step 214000
Ar -1.209460e+00 0.000000e+00 0.000000e+00
1
Step 215000
Ar -1.004381e+00 0.000000e+00 0.000000e+00
1
Step 216000
Ar -1.118958e+00 0.000000e+00 0.000000e+00
1
Step 217000
Ar -1.103567e+00 0.000000e+00 0.000000e+00
1
Step 218000
Ar -1.079328e+00 0.000000e+00 0.000000e+00
1
Step 219000
Ar -9.068999e-01 0.000000e+00 0.000000e+00
1
Step 220000
Ar -9.138744e-01 0.000000e+00 0.000000e+00
1
Step 221000
Ar -1.052072e+00 0.000000e+00 0.000000e+00
1
Step 222000
Ar -9.701251e-01 0.000000e+00 0.000000e+00
1
Step 223000
Ar -1.214014e+00 0.000000e+00 0.000000e+00
1
Step 224000
Ar -1.207791e+00 0.000000e+00 0.000000e+00
1
Step 225000
Ar -1.270655e+00 0.000000e+00 0.000000e+00
1
Step 226000
Ar -1.181686e+00 0.000000e+00 0.000000e+00
1
Step 227000
Ar -1.296249e+00 0.000000e+00 0.000000e+00
1
Step 228000
Ar -1.287132e+00 0.000000e+00 0.000000e+00
1
Step 229000
Ar -1.279541e+00 0.000000e+00 0.000000e+00
1
Step 230000
Ar -1.175207e+00 0.000000e+00 0.000000e+00
1
Step 231000
Ar -1.173244e+00 0.000000e+00 0.000000e+00
1
Step 232000
Ar -1.302251e+00 0.000000e+00 0.000000e+00
1
Step 233000
Ar -1.334430e+00 0.000000e+00 0.000000e+00
1
Step 234000
Ar -1.373234e+00 0.000000e+00 0.000000e+00
1
Step 235000
Ar -1.383153e+00 0.000000e+00 0.000000e+00
1
Step 236000
Ar -1.340207e+00 0.000000e+00 0.000000e+00
1
Step 237000
Ar -1.308449e+00 0.000000e+00 0.000000e+00
1
Step 238000
Ar -1.309194e+00 0.000000e+00 0.000000e+00
1
Step 239000
Ar -1.226500e+00 0.000000e+00 0.000000e+00
1
Step 240000
Ar -1.214246e+00 0.000000e+00 0.000000e+00
1
Step 241000
Ar -8.528195e-01 0.000000e+00 0.000000e+00
1
Step 242000
Ar -7.513891e-01 0.000000e+00 0.000000e+00
1
Step 243000
Ar -3.667409e-01 0.000000e+00 0.000000e+00
1
Step 244000
Ar -5.435948e-01 0.000000e+00 0.000000e+00
1
Step 245000
Ar -8.422760e-01 0.000000e+00 0.000000e+00
1
Step 246000
Ar -8.436895e-01 0.000000e+00 0.000000e+00
1
Step 247000
Ar -8.706164e-01 0.000000e+00 0.000000e+00
1
Step 248000
Ar -8.383739e-01 0.000000e+00 0.000000e+00
1
Step 249000
Ar -8.736994e-01 0.000000e+00 0.000000e+00
1
Step 250000
Ar -8.642784e-01 0.000000e+00 0.000000e+00
1
Step 251000
Ar -8.477454e-01 0.000000e+00 0.000000e+00
1
Step 252000
Ar -8.522880e-01 0.000000e+00 0.000000e+00
1
Step 253000
Ar -7.558156e-01 0.000000e+00 0.000000e+00
1
Step 254000
Ar -8.001026e-01 0.000000e+00 0.000000e+00
1
Step 255000
Ar -6.755852e-01 0.000000e+00 0.000000e+00
1
Step 256000
Ar -6.896728e-01 0.000000e+00 0.000000e+00
1
Step 257000
Ar -7.609313e-01 0.000000e+00 0.000000e+00
1
Step 258000
Ar -7.587212e-01 0.000000e+00 0.000000e+00
1
Step 259000
Ar -7.382215e-01 0.000000e+00 0.000000e+00
1
Step 260000
Ar -4.590335e-01 0.000000e+00 0.000000e+00
1
Step 261000
Ar -6.322189e-01 0.000000e+00 0.000000e+00
1
Step 262000
Ar -6.180119e-01 0.000000e+00 0.000000e+00
1
Step 263000
Ar -7.396834e-01 0.000000e+00 0.000000e+00
1
Step 264000
Ar -7.888015e-01 0.000000e+00 0.000000e+00
1
Step 265000
Ar -6.050557e-01 0.000000e+00 0.000000e+00
1
Step 266000
Ar -6.330391e-01 0.000000e+00 0.000000e+00
1
Step 267000
Ar -6.449568e-01 0.000000e+00 0.000000e+00
1
Step 268000
Ar -5.810885e-01 0.000000e+00 0.000000e+00
1
Step 269000
Ar -4.057168e-01 0.000000e+00 0.000000e+00
1
Step 270000
Ar -3.654858e-01 0.000000e+00 0.000000e+00
1
Step 271000
Ar -2.806016e-01 0.000000e+00 0.000000e+00
1
Step 272000
Ar -2.926425e-01 0.000000e+00 0.000000e+00
1
Step 273000
Ar -2.720246e-01 0.000000e+00 0.000000e+00
1
Step 274000
Ar -3.215371e-01 0.000000e+00 0.000000e+00
1
Step 275000
Ar -3.767505e-01 0.000000e+00 0.000000e+00
1
Step 276000
Ar -3.789557e-01 0.000000e+00 0.000000e+00
1
Step 277000
Ar -1.102835e+00 0.000000e+00 0.000000e+00
1
Step 278000
Ar -1.107810e+00 0.000000e+00 0.000000e+00
1
Step 279000
Ar -1.106379e+00 0.000000e+00 0.000000e+00
1
Step 280000
Ar -1.138731e+00 0.000000e+00 0.000000e+00
1
Step 281000
Ar -1.117680e+00 0.000000e+00 0.000000e+00
1
Step 282000
Ar -1.142627e+00 0.000000e+00 0.000000e+00
1
Step 283000
Ar -1.106666e+00 0.000000e+00 0.000000e+00
1
Step 284000
Ar -1.100676e+00 0.000000e+00 0.000000e+00
1
Step 285000
Ar -7.450874e-01 0.000000e+00 0.000000e+00
1
Step 286000
Ar -5.459089e-01 0.000000e+00 0.000000e+00
1
Step 287000
Ar -5.404309e-01 0.000000e+00 0.000000e+00
1
Step 288000
Ar -5.449812e-01 0.000000e+00 0.000000e+00
1
Step 289000
Ar -5.360070e-01 0.000000e+00 0.000000e+00
1
Step 290000
Ar -6.334540e-01 0.000000e+00 0.000000e+00
1
Step 291000
Ar -6.207943e-01 0.000000e+00 0.000000e+00
1
Step 292000
Ar -7.141708e-01 0.000000e+00 0.000000e+00
1
Step 293000
Ar -7.160727e-01 0.000000e+00 0.000000e+00
1
Step 294000
Ar -7.142686e-01 0.000000e+00 0.000000e+00
1
Step 295000
Ar -5.032807e-01 0.000000e+00 0.000000e+00
1
Step 296000
Ar -4.939864e-01 0.000000e+00 0.000000e+00
1
Step 297000
Ar -7.187693e-01 0.000000e+00 0.000000e+00
1
Step 298000
Ar -7.598714e-01 0.000000e+00 0.000000e+00
1
Step 299000
Ar -6.193988e-01 0.000000e+00 0.000000e+00
1
Step 300000
Ar -6.121446e-01 0.000000e+00 0.000000e+00
1
Step 301000
Ar -8.245183e-01 0.000000e+00 0.000000e+00
1
Step 302000
Ar -9.601810e-01 0.000000e+00 0.000000e+00
1
Step 303000
Ar -9.969329e-01 0.000000e+00 0.000000e+00
1
Step 304000
Ar -9.967286e-01 0.000000e+00 0.000000e+00
1
Step 305000
Ar -8.876182e-01 0.000000e+00 0.000000e+00
1
Step 306000
Ar -7.353703e-01 0.000000e+00 0.000000e+00
1
Step 307000
Ar -7.031414e-01 0.000000e+00 0.000000e+00
1
Step 308000
Ar -5.980305e-01 0.000000e+00 0.000000e+00
1
Step 309000
Ar -5.707393e-01 0.000000e+00 0.000000e+00
1
Step 310000
Ar -5.593763e-01 0.000000e+00 0.000000e+00
1
Step 311000
Ar -5.503715e-01 0.000000e+00 0.000000e+00
1
Step 312000
Ar -4.029053e-01 0.000000e+00 0.000000e+00
1
Step 313000
Ar -4.388799e-01 0.000000e+00 0.000000e+00
1
Step 314000
Ar -4.287151e-01 0.000000e+00 0.000000e+00
1
Step 315000
Ar -4.914916e-01 0.000000e+00 0.000000e+00
1
Step 316000
Ar -4.001816e-01 0.000000e+00 0.000000e+00
1
Step 317000
Ar -5.412870e-01 0.000000e+00 0.000000e+00
1
Step 318000
Ar -5.006113e-01 0.000000e+00 0.000000e+00
1
Step 319000
Ar -4.520994e-01 0.000000e+00 0.000000e+00
1
Step 320000
Ar -4.354865e-01 0.000000e+00 0.000000e+00
1
Step 321000
Ar -4.081809e-01 0.000000e+00 0.000000e+00
1
Step 322000
Ar -4.069703e-01 0.000000e+00 0.000000e+00
1
Step 323000
Ar -4.780555e-01 0.000000e+00 0.000000e+00
1
Step 324000
Ar -4.147073e-01 0.000000e+00 0.000000e+00
1
Step 325000
Ar -4.102696e-01 0.000000e+00 0.000000e+00
1
Step 326000
Ar -4.033149e-01 0.000000e+00 0.000000e+00
1
Step 327000
Ar -4.083241e-01 0.000000e+00 0.000000e+00
1
Step 328000
Ar -3.834931e-01 0.000000e+00 0.000000e+00
1
Step 329000
Ar -3.242772e-01 0.000000e+00 0.000000e+00
1
Step 330000
Ar -2.186020e-01 0.000000e+00 0.000000e+00
1
Step 331000
Ar -2.319251e-01 0.000000e+00 0.000000e+00
1
Step 332000
Ar -2.210697e-01 0.000000e+00 0.000000e+00
1
Step 333000
Ar -3.290504e-01 0.000000e+00 0.000000e+00
1
Step 334000
Ar -2.524474e-01 0.000000e+00 0.000000e+00
1
Step 335000
Ar -2.451318e-01 0.000000e+00 0.000000e+00
1
Step 336000
Ar -1.536014e-01 0.000000e+00 0.000000e+00
1
Step 337000
Ar -1.793511e-01 0.000000e+00 0.000000e+00
1
Step 338000
Ar 2.380689e-03 0.000000e+00 0.000000e+00
1
Step 339000
Ar -9.920849e-03 0.000000e+00 0.000000e+00
1
Step 340000
Ar -7.625617e-02 0.000000e+00 0.000000e+00
1
Step 341000
Ar -1.092908e-01 0.000000e+00 0.000000e+00
1
Step 342000
Ar 5.492227e-02 0.000000e+00 0.000000e+00
1
Step 343000
Ar 1.464015e-01 0.000000e+00 0.000000e+00
1
Step 344000
Ar 5.493041e-01 0.000000e+00 0.000000e+00
1
Step 345000
Ar 5.014623e-01 0.000000e+00 0.000000e+00
1
Step 346000
Ar 5.329184e-01 0.000000e+00 0.000000e+00
1
Step 347000
Ar 5.029704e-01 0.000000e+00 0.000000e+00
1
Step 348000
Ar 6.013541e-01 0.000000e+00 0.000000e+00
1
Step 349000
Ar 5.760494e-01 0.000000e+00 0.000000e+00
1
Step 350000
Ar 6.077562e-01 0.000000e+00 0.000000e+00
1
Step 351000
Ar 5.564179e-01 0.000000e+00 0.000000e+00
1
Step 352000
Ar 5.465833e-01 0.000000e+00 0.000000e+00
1
Step 353000
Ar 5.405916e-01 0.000000e+00 0.000000e+00
1
Step 354000
Ar 4.974050e-01 0.000000e+00 0.000000e+00
1
Step 355000
Ar 4.975158e-01 0.000000e+00 0.000000e+00
1
Step 356000
Ar 4.248766e-01 0.000000e+00 0.000000e+00
1
Step 357000
Ar 4.320673e-01 0.000000e+00 0.000000e+00
1
Step 358000
Ar 3.941233e-01 0.000000e+00 0.000000e+00
1
Step 359000
Ar 6.132737e-01 0.000000e+00 0.000000e+00
1
Step 360000
Ar 6.310212e-01 0.000000e+00 0.000000e+00
1
Step 361000
Ar 5.275051e-01 0.000000e+00 0.000000e+00
1
Step 362000
Ar 6.743486e-01 0.000000e+00 0.000000e+00
1
Step 363000
Ar 6.857242e-01 0.000000e+00 0.000000e+00
1
Step 364000
Ar 6.738488e-01 0.000000e+00 0.000000e+00
1
Step 365000
Ar 6.955519e-01 0.000000e+00 0.000000e+00
1
Step 366000
Ar 6.938508e-01 0.000000e+00 0.000000e+00
1
Step 367000
Ar 6.945517e-01 0.000000e+00 0.000000e+00
1
Step 368000
Ar 9.078955e-01 0.000000e+00 0.000000e+00
1
Step 369000
Ar 8.762496e-01 0.000000e+00 0.000000e+00
1
Step 370000
Ar 8.223184e-01 0.000000e+00 0.000000e+00
1
Step 371000
Ar 9.801235e-01 0.000000e+00 0.000000e+00
1
Step 372000
Ar 8.640278e-01 0.000000e+00 0.000000e+00
1
Step 373000
Ar 8.670109e-01 0.000000e+00 0.000000e+00
1
Step 374000
Ar 8.695167e-01 0.000000e+00 0.000000e+00
1
Step 375000
Ar 9.362821e-01 0.000000e+00 0.000000e+00
1
Step 376000
Ar 7.987485e-01 0.000000e+00 0.000000e+00
1
Step 377000
Ar 8.238281e-01 0.000000e+00 0.000000e+00
1
Step 378000
Ar 8.380193e-01 0.000000e+00 0.000000e+00
1
Step 379000
Ar 9.463840e-01 0.000000e+00 0.000000e+00
1
Step 380000
Ar 9.474784e-01 0.000000e+00 0.000000e+00
1
Step 381000
Ar 9.472155e-01 0.000000e+00 0.000000e+00
1
Step 382000
Ar 7.679944e-01 0.000000e+00 0.000000e+00
1
Step 383000
Ar 7.115739e-01 0.000000e+00 0.000000e+00
1
Step 384000
Ar 9.046085e-01 0.000000e+00 0.000000e+00
1
Step 385000
Ar 1.122814e+00 0.000000e+00 0.000000e+00
1
Step 386000
Ar 1.101563e+00 0.000000e+00 0.000000e+00
1
Step 387000
Ar 1.030039e+00 0.000000e+00 0.000000e+00
1
Step 388000
Ar 1.031315e+00 0.000000e+00 0.000000e+00
1
Step 389000
Ar 1.021706e+00 0.000000e+00 0.000000e+00
1
Step 390000
Ar 1.012687e+00 0.000000e+00 0.000000e+00
1
Step 391000
Ar 1.011628e+00 0.000000e+00 0.000000e+00
1
Step 392000
Ar 1.033247e+00 0.000000e+00 0.000000e+00
1
Step 393000
Ar 1.015347e+00 0.000000e+00 0.000000e+00
1
Step 394000
Ar 1.030461e+00 0.000000e+00 0.000000e+00
1
Step 395000
Ar 1.025219e+00 0.000000e+00 0.000000e+00
1
Step 396000
Ar 1.114142e+00 0.000000e+00 0.000000e+00
1
Step 397000
Ar 1.097135e+00 0.000000e+00 0.000000e+00
1
Step 398000
Ar 1.083946e+00 0.000000e+00 0.000000e+00
1
Step 399000
Ar 9.638824e-01 0.000000e+00 0.000000e+00
1
Step 400000
Ar 9.727553e-01 0.000000e+00 0.000000e+00
1
Step 401000
Ar 9.671720e-01 0.000000e+00 0.000000e+00
1
Step 402000
Ar 5.825783e-01 0.000000e+00 0.000000e+00
1
Step 403000
Ar 5.526740e-01 0.000000e+00 0.000000e+00
1
Step 404000
Ar 4.615032e-01 0.000000e+00 0.000000e+00
1
Step 405000
Ar 6.530022e-01 0.000000e+00 0.000000e+00
1
Step 406000
Ar 8.439660e-01 0.000000e+00 0.000000e+00
1
Step 407000
Ar 8.919345e-01 0.000000e+00 0.000000e+00
1
Step 408000
Ar 9.357349e-01 0.000000e+00 0.000000e+00
1
Step 409000
Ar 9.883122e-01 0.000000e+00 0.000000e+00
1
Step 410000
Ar 1.081968e+00 0.000000e+00 0.000000e+00
1
Step 411000
Ar 1.082409e+00 0.000000e+00 0.000000e+00
1
Step 412000
Ar 1.045052e+00 0.000000e+00 0.000000e+00
1
Step 413000
Ar 1.157565e+00 0.000000e+00 0.000000e+00
1
Step 414000
Ar 1.199611e+00 0.000000e+00 0.000000e+00
1
Step 415000
Ar 1.184650e+00 0.000000e+00 0.000000e+00
1
Step 416000
Ar 1.153791e+00 0.000000e+00 0.000000e+00
1
Step 417000
Ar 1.145398e+00 0.000000e+00 0.000000e+00
1
Step 418000
Ar 1.304525e+00 0.000000e+00 0.000000e+00
1
Step 419000
Ar 1.327512e+00 0.000000e+00 0.000000e+00
1
Step 420000
Ar 1.360340e+00 0.000000e+00 0.000000e+00
1
Step 421000
Ar 1.381444e+00 0.000000e+00 0.000000e+00
1
Step 422000
Ar 1.366136e+00 0.000000e+00 0.000000e+00
1
Step 423000
Ar 1.364718e+00 0.000000e+00 0.000000e+00
1
Step 424000
Ar 1.354916e+00 0.000000e+00 0.000000e+00
1
Step 425000
Ar 1.357160e+00 0.000000e+00 0.000000e+00
1
Step 426000
Ar 1.369337e+00 0.000000e+00 0.000000e+00
1
Step 427000
Ar 1.418668e+00 0.000000e+00 0.000000e+00
1
Step 428000
Ar 1.400417e+00 0.000000e+00 0.000000e+00
1
Step 429000
Ar 1.381264e+00 0.000000e+00 0.000000e+00
1
Step 430000
Ar 1.453130e+00 0.000000e+00 0.000000e+00
1
Step 431000
Ar 1.395013e+00 0.000000e+00 0.000000e+00
1
Step 432000
Ar 1.369140e+00 0.000000e+00 0.000000e+00
1
Step 433000
Ar 1.348872e+00 0.000000e+00 0.000000e+00
1
Step 434000
Ar 1.374293e+00 0.000000e+00 0.000000e+00
1
Step 435000
Ar 1.385080e+00 0.000000e+00 0.000000e+00
1
Step 436000
Ar 1.453969e+00 0.000000e+00 0.000000e+00
1
Step 437000
Ar 1.483023e+00 0.000000e+00 0.000000e+00
1
Step 438000
Ar 1.571190e+00 0.000000e+00 0.000000e+00
1
Step 439000
Ar 1.428977e+00 0.000000e+00 0.000000e+00
1
Step 440000
Ar 1.468112e+00 0.000000e+00 0.000000e+00
1
Step 441000
Ar 1.339172e+00 0.000000e+00 0.000000e+00
1
Step 442000
Ar 9.713943e-01 0.000000e+00 0.000000e+00
1
Step 443000
Ar 9.093724e-01 0.000000e+00 0.000000e+00
1
Step 444000
Ar 1.153579e+00 0.000000e+00 0.000000e+00
1
Step 445000
Ar 1.299106e+00 0.000000e+00 0.000000e+00
1
Step 446000
Ar 1.152320e+00 0.000000e+00 0.000000e+00
1
Step 447000
Ar 1.084048e+00 0.000000e+00 0.000000e+00
1
Step 448000
Ar 1.085611e+00 0.000000e+00 0.000000e+00
1
Step 449000
Ar 1.134124e+00 0.000000e+00 0.000000e+00
1
Step 450000
Ar 1.127446e+00 0.000000e+00 0.000000e+00
1
Step 451000
Ar 1.147481e+00 0.000000e+00 0.000000e+00
1
Step 452000
Ar 1.084060e+00 0.000000e+00 0.000000e+00
1
Step 453000
Ar 1.210284e+00 0.000000e+00 0.000000e+00
1
Step 454000
Ar 1.210207e+00 0.000000e+00 0.000000e+00
1
Step 455000
Ar 1.298584e+00 0.000000e+00 0.000000e+00
1
Step 456000
Ar 1.093578e+00 0.000000e+00 0.000000e+00
1
Step 457000
Ar 9.632129e-01 0.000000e+00 0.000000e+00
1
Step 458000
Ar 1.378091e+00 0.000000e+00 0.000000e+00
1
Step 459000
Ar 1.422615e+00 0.000000e+00 0.000000e+00
1
Step 460000
Ar 1.250779e+00 0.000000e+00 0.000000e+00
1
Step 461000
Ar 1.256925e+00 0.000000e+00 0.000000e+00
1
Step 462000
Ar 1.253711e+00 0.000000e+00 0.000000e+00
1
Step 463000
Ar 1.238553e+00 0.000000e+00 0.000000e+00
1
Step 464000
Ar 1.240411e+00 0.000000e+00 0.000000e+00
1
Step 465000
Ar 1.296898e+00 0.000000e+00 0.000000e+00
1
Step 466000
Ar 1.297432e+00 0.000000e+00 0.000000e+00
1
Step 467000
Ar 1.241663e+00 0.000000e+00 0.000000e+00
1
Step 468000
Ar 1.312375e+00 0.000000e+00 0.000000e+00
1
Step 469000
Ar 1.162875e+00 0.000000e+00 0.000000e+00
1
Step 470000
Ar 1.189717e+00 0.000000e+00 0.000000e+00
1
Step 471000
Ar 1.204882e+00 0.000000e+00 0.000000e+00
1
Step 472000
Ar 1.389451e+00 0.000000e+00 0.000000e+00
1
Step 473000
Ar 1.339173e+00 0.000000e+00 0.000000e+00
1
Step 474000
Ar 1.391846e+00 0.000000e+00 0.000000e+00
1
Step 475000
Ar 1.364344e+00 0.000000e+00 0.000000e+00
1
Step 476000
Ar 7.685436e-01 0.000000e+00 0.000000e+00
1
Step 477000
Ar 7.573499e-01 0.000000e+00 0.000000e+00
1
Step 478000
Ar 7.260555e-01 0.000000e+00 0.000000e+00
1
Step 479000
Ar 6.500255e-01 0.000000e+00 0.000000e+00
1
Step 480000
Ar 6.479363e-01 0.000000e+00 0.000000e+00
1
Step 481000
Ar 8.596973e-01 0.000000e+00 0.000000e+00
1
Step 482000
Ar 7.846770e-01 0.000000e+00 0.000000e+00
1
Step 483000
Ar 7.652135e-01 0.000000e+00 0.000000e+00
1
Step 484000
Ar 7.657172e-01 0.000000e+00 0.000000e+00
1
Step 485000
Ar 7.657003e-01 0.000000e+00 0.000000e+00
1
Step 486000
Ar 2.832884e-01 0.000000e+00 0.000000e+00
1
Step 487000
Ar 2.363461e-01 0.000000e+00 0.000000e+00
1
Step 488000
Ar 3.424052e-01 0.000000e+00 0.000000e+00
1
Step 489000
Ar 2.741867e-01 0.000000e+00 0.000000e+00
1
Step 490000
Ar 2.747018e-01 0.000000e+00 0.000000e+00
1
Step 491000
Ar 4.120349e-01 0.000000e+00 0.000000e+00
1
Step 492000
Ar 3.200150e-01 0.000000e+00 0.000000e+00
1
Step 493000
Ar 3.422081e-01 0.000000e+00 0.000000e+00
1
Step 494000
Ar 3.404412e-01 0.000000e+00 0.000000e+00
1
Step 495000
Ar 3.342623e-01 0.000000e+00 0.000000e+00
1
Step 496000
Ar 5.878322e-01 0.000000e+00 0.000000e+00
1
Step 497000
Ar 6.059791e-01 0.000000e+00 0.000000e+00
1
Step 498000
Ar 4.594247e-01 0.000000e+00 0.000000e+00
1
Step 499000
Ar 4.747244e-01 0.000000e+00 0.000000e+00
1
Step 500000
Ar 4.754884e-01 0.000000e+00 0.000000e+00
1
Step 501000
Ar 4.789117e-01 0.000000e+00 0.000000e+00
1
Step 502000
Ar 3.887867e-01 0.000000e+00 0.000000e+00
1
Step 503000
Ar 3.908806e-01 0.000000e+00 0.000000e+00
1
Step 504000
Ar 2.702292e-01 0.000000e+00 0.000000e+00
1
Step 505000
Ar 4.051012e-01 0.000000e+00 0.000000e+00
1
Step 506000
Ar 3.726919e-01 0.000000e+00 0.000000e+00
1
Step 507000
Ar 3.178466e-01 0.000000e+00 0.000000e+00
1
Step 508000
Ar 8.553166e-02 0.000000e+00 0.000000e+00
1
Step 509000
Ar 8.751895e-02 0.000000e+00 0.000000e+00
1
Step 510000
Ar 9.417996e-02 0.000000e+00 0.000000e+00
1
Step 511000
Ar 9.473964e-02 0.000000e+00 0.000000e+00
1
Step 512000
Ar 1.136036e-01 0.000000e+00 0.000000e+00
1
Step 513000
Ar 1.018942e-01 0.000000e+00 0.000000e+00
1
Step 514000
Ar 1.194073e-01 0.000000e+00 0.000000e+00
1
Step 515000
Ar 1.015253e-01 0.000000e+00 0.000000e+00
1
Step 516000
Ar 1.046392e-01 0.000000e+00 0.000000e+00
1
Step 517000
Ar 3.880525e-01 0.000000e+00 0.000000e+00
1
Step 518000
Ar 3.893023e-01 0.000000e+00 0.000000e+00
1
Step 519000
Ar 3.875298e-01 0.000000e+00 0.000000e+00
1
Step 520000
Ar 3.325480e-01 0.000000e+00 0.000000e+00
1
Step 521000
Ar 1.619920e-01 0.000000e+00 0.000000e+00
1
Step 522000
Ar 2.110711e-01 0.000000e+00 0.000000e+00
1
Step 523000
Ar -3.587798e-02 0.000000e+00 0.000000e+00
1
Step 524000
Ar 5.008483e-02 0.000000e+00 0.000000e+00
1
Step 525000
Ar 5.590446e-02 0.000000e+00 0.000000e+00
1
Step 526000
Ar 5.418957e-02 0.000000e+00 0.000000e+00
1
Step 527000
Ar 5.411474e-02 0.000000e+00 0.000000e+00
1
Step 528000
Ar 3.820717e-02 0.000000e+00 0.000000e+00
1
Step 529000
Ar 5.175719e-02 0.000000e+00 0.000000e+00
1
Step 530000
Ar 8.156608e-02 0.000000e+00 0.000000e+00
1
Step 531000
Ar 2.677101e-02 0.000000e+00 0.000000e+00
1
Step 532000
Ar 1.062365e-01 0.000000e+00 0.000000e+00
1
Step 533000
Ar 1.122817e-01 0.000000e+00 0.000000e+00
1
Step 534000
Ar 1.210279e-01 0.000000e+00 0.000000e+00
1
Step 535000
Ar 1.524165e-01 0.000000e+00 0.000000e+00
1
Step 536000
Ar 9.490347e-01 0.000000e+00 0.000000e+00
1
Step 537000
Ar 9.693113e-01 0.000000e+00 0.000000e+00
1
Step 538000
Ar 9.481786e-01 0.000000e+00 0.000000e+00
1
Step 539000
Ar 1.124611e+00 0.000000e+00 0.000000e+00
1
Step 540000
Ar 1.101190e+00 0.000000e+00 0.000000e+00
1
Step 541000
Ar 8.209846e-01 0.000000e+00 0.000000e+00
1
Step 542000
Ar 7.737061e-01 0.000000e+00 0.000000e+00
1
Step 543000
Ar 8.211803e-01 0.000000e+00 0.000000e+00
1
Step 544000
Ar 1.032332e+00 0.000000e+00 0.000000e+00
1
Step 545000
Ar 8.178486e-01 0.000000e+00 0.000000e+00
1
Step 546000
Ar 8.294327e-01 0.000000e+00 0.000000e+00
1
Step 547000
Ar 7.711762e-01 0.000000e+00 0.000000e+00
1
Step 548000
Ar 7.571520e-01 0.000000e+00 0.000000e+00
1
Step 549000
Ar 6.600747e-01 0.000000e+00 0.000000e+00
1
Step 550000
Ar 6.717363e-01 0.000000e+00 0.000000e+00
1
Step 551000
Ar 6.519272e-01 0.000000e+00 0.000000e+00
1
Step 552000
Ar 6.503963e-01 0.000000e+00 0.000000e+00
1
Step 553000
Ar 6.718756e-01 0.000000e+00 0.000000e+00
1
Step 554000
Ar 6.303537e-01 0.000000e+00 0.000000e+00
1
Step 555000
Ar 6.342897e-01 0.000000e+00 0.000000e+00
1
Step 556000
Ar 6.640722e-01 0.000000e+00 0.000000e+00
1
Step 557000
Ar 7.591221e-01 0.000000e+00 0.000000e+00
1
Step 558000
Ar 7.083770e-01 0.000000e+00 0.000000e+00
1
Step 559000
Ar 1.089968e+00 0.000000e+00 0.000000e+00
1
Step 560000
Ar 1.093837e+00 0.000000e+00 0.000000e+00
1
Step 561000
Ar 1.070956e+00 0.000000e+00 0.000000e+00
1
Step 562000
Ar 1.097585e+00 0.000000e+00 0.000000e+00
1
Step 563000
Ar 1.111737e+00 0.000000e+00 0.000000e+00
1
Step 564000
Ar 1.169742e+00 0.000000e+00 0.000000e+00
1
Step 565000
Ar 1.169385e+00 0.000000e+00 0.000000e+00
1
Step 566000
Ar 5.257696e-01 0.000000e+00 0.000000e+00
1
Step 567000
Ar 4.634468e-01 0.000000e+00 0.000000e+00
1
Step 568000
Ar 4.651052e-01 0.000000e+00 0.000000e+00
1
Step 569000
Ar 5.455353e-01 0.000000e+00 0.000000e+00
1
Step 570000
Ar 5.152699e-01 0.000000e+00 0.000000e+00
1
Step 571000
Ar 4.837790e-01 0.000000e+00 0.000000e+00
1
Step 572000
Ar 5.799023e-01 0.000000e+00 0.000000e+00
1
Step 573000
Ar 2.271768e-01 0.000000e+00 0.000000e+00
1
Step 574000
Ar 2.025375e-01 0.000000e+00 0.000000e+00
1
Step 575000
Ar 3.600232e-01 0.000000e+00 0.000000e+00
1
Step 576000
Ar 4.114526e-01 0.000000e+00 0.000000e+00
1
Step 577000
Ar 3.668215e-01 0.000000e+00 0.000000e+00
1
Step 578000
Ar 5.482704e-01 0.000000e+00 0.000000e+00
1
Step 579000
Ar 5.399204e-01 0.000000e+00 0.000000e+00
1
Step 580000
Ar 5.443751e-01 0.000000e+00 0.000000e+00
1
Step 581000
Ar 6.067286e-01 0.000000e+00 0.000000e+00
1
Step 582000
Ar 5.913230e-01 0.000000e+00 0.000000e+00
1
Step 583000
Ar 5.978494e-01 0.000000e+00 0.000000e+00
1
Step 584000
Ar 5.875533e-01 0.000000e+00 0.000000e+00
1
Step 585000
Ar 4.590081e-01 0.000000e+00 0.000000e+00
1
Step 586000
Ar 3.819127e-01 0.000000e+00 0.000000e+00
1
Step 587000
Ar 4.037990e-01 0.000000e+00 0.000000e+00
1
Step 588000
Ar 3.599800e-01 0.000000e+00 0.000000e+00
1
Step 589000
Ar 3.648614e-01 0.000000e+00 0.000000e+00
1
Step 590000
Ar 3.607663e-01 0.000000e+00 0.000000e+00
1
Step 591000
Ar 3.865761e-01 0.000000e+00 0.000000e+00
1
Step 592000
Ar 3.905191e-01 0.000000e+00 0.000000e+00
1
Step 593000
Ar 3.838150e-01 0.000000e+00 0.000000e+00
1
Step 594000
Ar 2.828135e-01 0.000000e+00 0.000000e+00
1
Step 595000
Ar 2.671359e-01 0.000000e+00 0.000000e+00
1
Step 596000
Ar 2.324447e-01 0.000000e+00 0.000000e+00
1
Step 597000
Ar 1.379584e-01 0.000000e+00 0.000000e+00
1
Step 598000
Ar 1.135704e-01 0.000000e+00 0.000000e+00
1
Step 599000
Ar -1.932363e-02 0.000000e+00 0.000000e+00
1
Step 600000
Ar -8.966880e-03 0.000000e+00 0.000000e+00
1
Step 601000
Ar -2.547767e-02 0.000000e+00 0.000000e+00
1
Step 602000
Ar -1.867801e-01 0.000000e+00 0.000000e+00
1
Step 603000
Ar -1.810376e-01 0.000000e+00 0.000000e+00
1
Step 604000
Ar -1.348489e-01 0.000000e+00 0.000000e+00
1
Step 605000
Ar -2.693588e-01 0.000000e+00 0.000000e+00
1
Step 606000
Ar -2.990382e-01 0.000000e+00 0.000000e+00
1
Step 607000
Ar -1.591981e-01 0.000000e+00 0.000000e+00
1
Step 608000
Ar -3.579096e-01 0.000000e+00 0.000000e+00
1
Step 609000
Ar -2.523226e-01 0.000000e+00 0.000000e+00
1
Step 610000
Ar -2.953611e-01 0.000000e+00 0.000000e+00
1
Step 611000
Ar -3.848204e-01 0.000000e+00 0.000000e+00
1
Step 612000
Ar -4.105356e-01 0.000000e+00 0.000000e+00
1
Step 613000
Ar -2.670074e-01 0.000000e+00 0.000000e+00
1
Step 614000
Ar -2.243994e-01 0.000000e+00 0.000000e+00
1
Step 615000
Ar -8.682595e-02 0.000000e+00 0.000000e+00
1
Step 616000
Ar -8.631561e-02 0.000000e+00 0.000000e+00
1
Step 617000
Ar -2.388585e-01 0.000000e+00 0.000000e+00
1
Step 618000
Ar -2.223564e-01 0.000000e+00 0.000000e+00
1
Step 619000
Ar -2.420253e-01 0.000000e+00 0.000000e+00
1
Step 620000
Ar -2.285540e-01 0.000000e+00 0.000000e+00
1
Step 621000
Ar -3.707538e-01 0.000000e+00 0.000000e+00
1
Step 622000
Ar -3.352254e-01 0.000000e+00 0.000000e+00
1
Step 623000
Ar -3.234809e-01 0.000000e+00 0.000000e+00
1
Step 624000
Ar -3.318018e-01 0.000000e+00 0.000000e+00
1
Step 625000
Ar -4.012859e-01 0.000000e+00 0.000000e+00
1
Step 626000
Ar -2.695085e-01 0.000000e+00 0.000000e+00
1
Step 627000
Ar -3.152734e-01 0.000000e+00 0.000000e+00
1
Step 628000
Ar -7.287763e-02 0.000000e+00 0.000000e+00
1
Step 629000
Ar -1.391816e-01 0.000000e+00 0.000000e+00
1
Step 630000
Ar -9.534866e-02 0.000000e+00 0.000000e+00
1
Step 631000
Ar -7.222555e-02 0.000000e+00 0.000000e+00
1
Step 632000
Ar -9.775795e-02 0.000000e+00 0.000000e+00
1
Step 633000
Ar -2.728461e-01 0.000000e+00 0.000000e+00
1
Step 634000
Ar -1.854199e-01 0.000000e+00 0.000000e+00
1
Step 635000
Ar -2.161782e-01 0.000000e+00 0.000000e+00
1
Step 636000
Ar -2.674781e-01 0.000000e+00 0.000000e+00
1
Step 637000
Ar -2.680790e-01 0.000000e+00 0.000000e+00
1
Step 638000
Ar 4.464871e-02 0.000000e+00 0.000000e+00
1
Step 639000
Ar -4.801293e-03 0.000000e+00 0.000000e+00
1
Step 640000
Ar 1.003005e-02 0.000000e+00 0.000000e+00
1
Step 641000
Ar 9.123655e-03 0.000000e+00 0.000000e+00
1
Step 642000
Ar 1.231582e-02 0.000000e+00 0.000000e+00
1
Step 643000
Ar 3.031491e-02 0.000000e+00 0.000000e+00
1
Step 644000
Ar 2.270436e-01 0.000000e+00 0.000000e+00
1
Step 645000
Ar 2.878564e-01 0.000000e+00 0.000000e+00
1
Step 646000
Ar 3.745698e-01 0.000000e+00 0.000000e+00
1
Step 647000
Ar 3.824250e-01 0.000000e+00 0.000000e+00
1
Step 648000
Ar 3.638023e-01 0.000000e+00 0.000000e+00
1
Step 649000
Ar 1.208844e-02 0.000000e+00 0.000000e+00
1
Step 650000
Ar 5.831287e-03 0.000000e+00 0.000000e+00
1
Step 651000
Ar 7.060891e-03 0.000000e+00 0.000000e+00
1
Step 652000