1
Step 120000
Ar 9.813651e-01 0.000000e+00 0.000000e+00
1
Step 121000
Ar 7.968498e-01 0.000000e+00 0.000000e+00
1
Step 122000
Ar 6.902158e-01 0.000000e+00 0.000000e+00
1
Step 123000
Ar 6.683619e-01 0.000000e+00 0.000000e+00
1
Step 124000
Ar 6.522551e-01 0.000000e+00 0.000000e+00
1
Step 125000
Ar 8.978816e-01 0.000000e+00 0.000000e+00
1
Step 126000
Ar 1.060775e+00 0.000000e+00 0.000000e+00
1
Step 127000
Ar 1.156656e+00 0.000000e+00 0.000000e+00
1
Step 128000
Ar 9.481886e-01 0.000000e+00 0.000000e+00
1
Step 129000
Ar 8.931892e-01 0.000000e+00 0.000000e+00
1
Step 130000
Ar 9.120019e-01 0.000000e+00 0.000000e+00
1
Step 131000
Ar 9.131162e-01 0.000000e+00 0.000000e+00
1
Step 132000
Ar 1.086996e+00 0.000000e+00 0.000000e+00
1
Step 133000
Ar 1.040096e+00 0.000000e+00 0.000000e+00
1
Step 134000
Ar 1.073418e+00 0.000000e+00 0.000000e+00
1
Step 135000
Ar 1.049795e+00 0.000000e+00 0.000000e+00
1
Step 136000
Ar 1.051444e+00 0.000000e+00 0.000000e+00
1
Step 137000
Ar 1.058651e+00 0.000000e+00 0.000000e+00
1
Step 138000
Ar 1.138881e+00 0.000000e+00 0.000000e+00
1
Step 139000
Ar 1.213965e+00 0.000000e+00 0.000000e+00
1
Step 140000
Ar 1.266652e+00 0.000000e+00 0.000000e+00
1
Step 141000
Ar 1.249213e+00 0.000000e+00 0.000000e+00
1
Step 142000
Ar 1.183822e+00 0.000000e+00 0.000000e+00
1
Step 143000
Ar 1.071492e+00 0.000000e+00 0.000000e+00
1
Step 144000
Ar 1.022035e+00 0.000000e+00 0.000000e+00
1
Step 145000
Ar 1.023641e+00 0.000000e+00 0.000000e+00
1
Step 146000
Ar 1.015555e+00 0.000000e+00 0.000000e+00
1
Step 147000
Ar 1.058812e+00 0.000000e+00 0.000000e+00
1
Step 148000
Ar 1.100258e+00 0.000000e+00 0.000000e+00
1
Step 149000
Ar 1.110626e+00 0.000000e+00 0.000000e+00
1
Step 150000
Ar 1.107829e+00 0.000000e+00 0.000000e+00
1
Step 151000
Ar 9.693513e-01 0.000000e+00 0.000000e+00
1
Step 152000
Ar 7.444702e-01 0.000000e+00 0.000000e+00
1
Step 153000
Ar 7.709361e-01 0.000000e+00 0.000000e+00
1
Step 154000
Ar 8.722493e-01 0.000000e+00 0.000000e+00
1
Step 155000
Ar 8.281336e-01 0.000000e+00 0.000000e+00
1
Step 156000
Ar 7.538115e-01 0.000000e+00 0.000000e+00
1
Step 157000
Ar 7.794398e-01 0.000000e+00 0.000000e+00
1
Step 158000
Ar 6.592289e-01 0.000000e+00 0.000000e+00
1
Step 159000
Ar 6.549745e-01 0.000000e+00 0.000000e+00
1
Step 160000
Ar 6.257021e-01 0.000000e+00 0.000000e+00
1
Step 161000
Ar 6.892003e-01 0.000000e+00 0.000000e+00
1
Step 162000
Ar 5.957537e-01 0.000000e+00 0.000000e+00
1
Step 163000
Ar 3.004155e-01 0.000000e+00 0.000000e+00
1
Step 164000
Ar 2.156254e-01 0.000000e+00 0.000000e+00
1
Step 165000
Ar 2.557965e-01 0.000000e+00 0.000000e+00
1
Step 166000
Ar 4.888710e-01 0.000000e+00 0.000000e+00
1
Step 167000
Ar 4.202844e-01 0.000000e+00 0.000000e+00
1
Step 168000
Ar 5.862481e-01 0.000000e+00 0.000000e+00
1
Step 169000
Ar 8.782456e-01 0.000000e+00 0.000000e+00
1
Step 170000
Ar 6.853055e-01 0.000000e+00 0.000000e+00
1
Step 171000
Ar 7.325826e-01 0.000000e+00 0.000000e+00
1
Step 172000
Ar 7.812910e-01 0.000000e+00 0.000000e+00
1
Step 173000
Ar 7.295662e-01 0.000000e+00 0.000000e+00
1
Step 174000
Ar 7.712339e-01 0.000000e+00 0.000000e+00
1
Step 175000
Ar 7.784065e-01 0.000000e+00 0.000000e+00
1
Step 176000
Ar 7.627448e-01 0.000000e+00 0.000000e+00
1
Step 177000
Ar 8.181119e-01 0.000000e+00 0.000000e+00
1
Step 178000
Ar 8.066916e-01 0.000000e+00 0.000000e+00
1
Step 179000
Ar 4.877787e-01 0.000000e+00 0.000000e+00
1
Step 180000
Ar 3.091707e-01 0.000000e+00 0.000000e+00
1
Step 181000
Ar 3.333489e-01 0.000000e+00 0.000000e+00
1
Step 182000
Ar 4.474091e-01 0.000000e+00 0.000000e+00
1
Step 183000
Ar 3.997802e-01 0.000000e+00 0.000000e+00
1
Step 184000
Ar 3.917111e-01 0.000000e+00 0.000000e+00
1
Step 185000
Ar 4.428315e-01 0.000000e+00 0.000000e+00
1
Step 186000
Ar 3.884572e-01 0.000000e+00 0.000000e+00
1
Step 187000
Ar 4.513069e-01 0.000000e+00 0.000000e+00
1
Step 188000
Ar 2.873556e-01 0.000000e+00 0.000000e+00
1
Step 189000
Ar 3.152640e-01 0.000000e+00 0.000000e+00
1
Step 190000
Ar 4.003918e-01 0.000000e+00 0.000000e+00
1
Step 191000
Ar 4.069931e-01 0.000000e+00 0.000000e+00
1
Step 192000
Ar 5.326460e-01 0.000000e+00 0.000000e+00
1
Step 193000
Ar 5.321543e-01 0.000000e+00 0.000000e+00
1
Step 194000
Ar 5.429039e-01 0.000000e+00 0.000000e+00
1
Step 195000
Ar 5.443466e-01 0.000000e+00 0.000000e+00
1
Step 196000
Ar 6.899492e-01 0.000000e+00 0.000000e+00
1
Step 197000
Ar 7.466021e-01 0.000000e+00 0.000000e+00
1
Step 198000
Ar 6.917892e-01 0.000000e+00 0.000000e+00
1
Step 199000
Ar 7.534221e-01 0.000000e+00 0.000000e+00
1
Step 200000
Ar 7.280475e-01 0.000000e+00 0.000000e+00
1
Step 201000
Ar 7.263666e-01 0.000000e+00 0.000000e+00
1
Step 202000
Ar 7.342296e-01 0.000000e+00 0.000000e+00
1
Step 203000
Ar 7.426044e-01 0.000000e+00 0.000000e+00
1
Step 204000
Ar 7.300960e-01 0.000000e+00 0.000000e+00
1
Step 205000
Ar 7.473333e-01 0.000000e+00 0.000000e+00
1
Step 206000
Ar 7.572791e-01 0.000000e+00 0.000000e+00
1
Step 207000
Ar 6.231273e-01 0.000000e+00 0.000000e+00
1
Step 208000
Ar 6.213058e-01 0.000000e+00 0.000000e+00
1
Step 209000
Ar 5.069531e-01 0.000000e+00 0.000000e+00
1
Step 210000
Ar 5.607495e-01 0.000000e+00 0.000000e+00
1
Step 211000
Ar 6.042912e-01 0.000000e+00 0.000000e+00
1
Step 212000
Ar 6.426081e-01 0.000000e+00 0.000000e+00
1
Step 213000
Ar 1.457789e+00 0.000000e+00 0.000000e+00
1
Step 214000
Ar 1.270705e+00 0.000000e+00 0.000000e+00
1
Step 215000
Ar 1.284895e+00 0.000000e+00 0.000000e+00
1
Step 216000
Ar 1.272789e+00 0.000000e+00 0.000000e+00
1
Step 217000
Ar 1.234254e+00 0.000000e+00 0.000000e+00
1
Step 218000
Ar 1.268589e+00 0.000000e+00 0.000000e+00
1
Step 219000
Ar 1.268422e+00 0.000000e+00 0.000000e+00
1
Step 220000
Ar 1.261900e+00 0.000000e+00 0.000000e+00
1
Step 221000
Ar 1.259220e+00 0.000000e+00 0.000000e+00
1
Step 222000
Ar 1.283365e+00 0.000000e+00 0.000000e+00
1
Step 223000
Ar 1.145984e+00 0.000000e+00 0.000000e+00
1
Step 224000
Ar 1.256721e+00 0.000000e+00 0.000000e+00
1
Step 225000
Ar 1.275874e+00 0.000000e+00 0.000000e+00
1
Step 226000
Ar 9.157065e-01 0.000000e+00 0.000000e+00
1
Step 227000
Ar 9.449525e-01 0.000000e+00 0.000000e+00
1
Step 228000
Ar 9.439147e-01 0.000000e+00 0.000000e+00
1
Step 229000
Ar 9.513671e-01 0.000000e+00 0.000000e+00
1
Step 230000
Ar 9.677746e-01 0.000000e+00 0.000000e+00
1
Step 231000
Ar 1.017889e+00 0.000000e+00 0.000000e+00
1
Step 232000
Ar 1.335824e+00 0.000000e+00 0.000000e+00
1
Step 233000
Ar 1.294289e+00 0.000000e+00 0.000000e+00
1
Step 234000
Ar 9.368510e-01 0.000000e+00 0.000000e+00
1
Step 235000
Ar 1.105038e+00 0.000000e+00 0.000000e+00
1
Step 236000
Ar 9.203335e-01 0.000000e+00 0.000000e+00
1
Step 237000
Ar 9.549718e-01 0.000000e+00 0.000000e+00
1
Step 238000
Ar 1.318141e+00 0.000000e+00 0.000000e+00
1
Step 239000
Ar 1.331721e+00 0.000000e+00 0.000000e+00
1
Step 240000
Ar 1.374027e+00 0.000000e+00 0.000000e+00
1
Step 241000
Ar 1.387814e+00 0.000000e+00 0.000000e+00
1
Step 242000
Ar 1.361724e+00 0.000000e+00 0.000000e+00
1
Step 243000
Ar 1.342036e+00 0.000000e+00 0.000000e+00
1
Step 244000
Ar 1.361564e+00 0.000000e+00 0.000000e+00
1
Step 245000
Ar 1.311846e+00 0.000000e+00 0.000000e+00
1
Step 246000
Ar 1.294067e+00 0.000000e+00 0.000000e+00
1
Step 247000
Ar 1.401727e+00 0.000000e+00 0.000000e+00
1
Step 248000
Ar 1.405123e+00 0.000000e+00 0.000000e+00
1
Step 249000
Ar 1.398318e+00 0.000000e+00 0.000000e+00
1
Step 250000
Ar 1.392887e+00 0.000000e+00 0.000000e+00
1
Step 251000
Ar 1.323638e+00 0.000000e+00 0.000000e+00
1
Step 252000
Ar 1.438677e+00 0.000000e+00 0.000000e+00
1
Step 253000
Ar 1.343518e+00 0.000000e+00 0.000000e+00
1
Step 254000
Ar 1.426641e+00 0.000000e+00 0.000000e+00
1
Step 255000
Ar 1.432502e+00 0.000000e+00 0.000000e+00
1
Step 256000
Ar 1.182375e+00 0.000000e+00 0.000000e+00
1
Step 257000
Ar 1.185929e+00 0.000000e+00 0.000000e+00
1
Step 258000
Ar 1.188195e+00 0.000000e+00 0.000000e+00
1
Step 259000
Ar 1.042238e+00 0.000000e+00 0.000000e+00
1
Step 260000
Ar 1.042748e+00 0.000000e+00 0.000000e+00
1
Step 261000
Ar 8.993812e-01 0.000000e+00 0.000000e+00
1
Step 262000
Ar 9.589720e-01 0.000000e+00 0.000000e+00
1
Step 263000
Ar 9.106769e-01 0.000000e+00 0.000000e+00
1
Step 264000
Ar 9.012956e-01 0.000000e+00 0.000000e+00
1
Step 265000
Ar 8.442002e-01 0.000000e+00 0.000000e+00
1
Step 266000
Ar 9.160809e-01 0.000000e+00 0.000000e+00
1
Step 267000
Ar 9.107782e-01 0.000000e+00 0.000000e+00
1
Step 268000
Ar 1.205533e+00 0.000000e+00 0.000000e+00
1
Step 269000
Ar 1.003129e+00 0.000000e+00 0.000000e+00
1
Step 270000
Ar 1.130470e+00 0.000000e+00 0.000000e+00
1
Step 271000
Ar 1.058641e+00 0.000000e+00 0.000000e+00
1
Step 272000
Ar 1.065814e+00 0.000000e+00 0.000000e+00
1
Step 273000
Ar 1.072975e+00 0.000000e+00 0.000000e+00
1
Step 274000
Ar 1.076424e+00 0.000000e+00 0.000000e+00
1
Step 275000
Ar 1.083076e+00 0.000000e+00 0.000000e+00
1
Step 276000
Ar 1.111742e+00 0.000000e+00 0.000000e+00
1
Step 277000
Ar 1.070262e+00 0.000000e+00 0.000000e+00
1
Step 278000
Ar 1.093125e+00 0.000000e+00 0.000000e+00
1
Step 279000
Ar 1.265462e+00 0.000000e+00 0.000000e+00
1
Step 280000
Ar 1.297173e+00 0.000000e+00 0.000000e+00
1
Step 281000
Ar 1.300112e+00 0.000000e+00 0.000000e+00
1
Step 282000
Ar 1.198563e+00 0.000000e+00 0.000000e+00
1
Step 283000
Ar 1.046409e+00 0.000000e+00 0.000000e+00
1
Step 284000
Ar 9.812867e-01 0.000000e+00 0.000000e+00
1
Step 285000
Ar 1.052713e+00 0.000000e+00 0.000000e+00
1
Step 286000
Ar 1.136264e+00 0.000000e+00 0.000000e+00
1
Step 287000
Ar 1.127028e+00 0.000000e+00 0.000000e+00
1
Step 288000
Ar 1.130765e+00 0.000000e+00 0.000000e+00
1
Step 289000
Ar 1.149761e+00 0.000000e+00 0.000000e+00
1
Step 290000
Ar 1.003131e+00 0.000000e+00 0.000000e+00
1
Step 291000
Ar 1.001478e+00 0.000000e+00 0.000000e+00
1
Step 292000
Ar 1.062288e+00 0.000000e+00 0.000000e+00
1
Step 293000
Ar 1.062429e+00 0.000000e+00 0.000000e+00
1
Step 294000
Ar 1.048065e+00 0.000000e+00 0.000000e+00
1
Step 295000
Ar 1.156795e+00 0.000000e+00 0.000000e+00
1
Step 296000
Ar 1.053840e+00 0.000000e+00 0.000000e+00
1
Step 297000
Ar 1.102895e+00 0.000000e+00 0.000000e+00
1
Step 298000
Ar 1.206725e+00 0.000000e+00 0.000000e+00
1
Step 299000
Ar 1.210358e+00 0.000000e+00 0.000000e+00
1
Step 300000
Ar 9.517095e-01 0.000000e+00 0.000000e+00
1
Step 301000
Ar 9.618501e-01 0.000000e+00 0.000000e+00
1
Step 302000
Ar 1.061807e+00 0.000000e+00 0.000000e+00
1
Step 303000
Ar 1.049004e+00 0.000000e+00 0.000000e+00
1
Step 304000
Ar 1.094372e+00 0.000000e+00 0.000000e+00
1
Step 305000
Ar 1.298754e+00 0.000000e+00 0.000000e+00
1
Step 306000
Ar 1.227948e+00 0.000000e+00 0.000000e+00
1
Step 307000
Ar 1.253718e+00 0.000000e+00 0.000000e+00
1
Step 308000
Ar 1.253278e+00 0.000000e+00 0.000000e+00
1
Step 309000
Ar 1.247589e+00 0.000000e+00 0.000000e+00
1
Step 310000
Ar 1.255576e+00 0.000000e+00 0.000000e+00
1
Step 311000
Ar 1.259531e+00 0.000000e+00 0.000000e+00
1
Step 312000
Ar 1.258133e+00 0.000000e+00 0.000000e+00
1
Step 313000
Ar 1.259255e+00 0.000000e+00 0.000000e+00
1
Step 314000
Ar 1.258414e+00 0.000000e+00 0.000000e+00
1
Step 315000
Ar 1.260932e+00 0.000000e+00 0.000000e+00
1
Step 316000
Ar 1.261193e+00 0.000000e+00 0.000000e+00
1
Step 317000
Ar 1.260916e+00 0.000000e+00 0.000000e+00
1
Step 318000
Ar 1.332475e+00 0.000000e+00 0.000000e+00
1
Step 319000
Ar 1.470977e+00 0.000000e+00 0.000000e+00
1
Step 320000
Ar 1.464008e+00 0.000000e+00 0.000000e+00
1
Step 321000
Ar 1.522454e+00 0.000000e+00 0.000000e+00
1
Step 322000
Ar 1.382046e+00 0.000000e+00 0.000000e+00
1
Step 323000
Ar 1.399326e+00 0.000000e+00 0.000000e+00
1
Step 324000
Ar 1.381459e+00 0.000000e+00 0.000000e+00
1
Step 325000
Ar 1.364341e+00 0.000000e+00 0.000000e+00
1
Step 326000
Ar 1.433742e+00 0.000000e+00 0.000000e+00
1
Step 327000
Ar 1.437191e+00 0.000000e+00 0.000000e+00
1
Step 328000
Ar 1.394941e+00 0.000000e+00 0.000000e+00
1
Step 329000
Ar 1.169986e+00 0.000000e+00 0.000000e+00
1
Step 330000
Ar 7.662170e-01 0.000000e+00 0.000000e+00
1
Step 331000
Ar 3.936112e-01 0.000000e+00 0.000000e+00
1
Step 332000
Ar 3.919138e-01 0.000000e+00 0.000000e+00
1
Step 333000
Ar 3.905260e-01 0.000000e+00 0.000000e+00
1
Step 334000
Ar 5.181577e-01 0.000000e+00 0.000000e+00
1
Step 335000
Ar 6.876281e-01 0.000000e+00 0.000000e+00
1
Step 336000
Ar 5.638299e-01 0.000000e+00 0.000000e+00
1
Step 337000
Ar 5.827997e-01 0.000000e+00 0.000000e+00
1
Step 338000
Ar 4.014988e-01 0.000000e+00 0.000000e+00
1
Step 339000
Ar 5.418941e-01 0.000000e+00 0.000000e+00
1
Step 340000
Ar 4.892604e-01 0.000000e+00 0.000000e+00
1
Step 341000
Ar 4.574171e-01 0.000000e+00 0.000000e+00
1
Step 342000
Ar 4.614157e-01 0.000000e+00 0.000000e+00
1
Step 343000
Ar 4.519356e-01 0.000000e+00 0.000000e+00
1
Step 344000
Ar 4.540585e-01 0.000000e+00 0.000000e+00
1
Step 345000
Ar 4.143086e-01 0.000000e+00 0.000000e+00
1
Step 346000
Ar 5.295781e-01 0.000000e+00 0.000000e+00
1
Step 347000
Ar 4.997157e-01 0.000000e+00 0.000000e+00
1
Step 348000
Ar 4.984044e-01 0.000000e+00 0.000000e+00
1
Step 349000
Ar 5.357527e-01 0.000000e+00 0.000000e+00
1
Step 350000
Ar 4.537131e-01 0.000000e+00 0.000000e+00
1
Step 351000
Ar 4.998227e-01 0.000000e+00 0.000000e+00
1
Step 352000
Ar -7.636276e-01 0.000000e+00 0.000000e+00
1
Step 353000
Ar -1.079893e+00 0.000000e+00 0.000000e+00
1
Step 354000
Ar -7.893257e-01 0.000000e+00 0.000000e+00
1
Step 355000
Ar -1.173297e+00 0.000000e+00 0.000000e+00
1
Step 356000
Ar -9.409138e-01 0.000000e+00 0.000000e+00
1
Step 357000
Ar -1.168793e+00 0.000000e+00 0.000000e+00
1
Step 358000
Ar -1.086575e+00 0.000000e+00 0.000000e+00
1
Step 359000
Ar -7.153450e-01 0.000000e+00 0.000000e+00
1
Step 360000
Ar -1.059943e+00 0.000000e+00 0.000000e+00
1
Step 361000
Ar -1.095231e+00 0.000000e+00 0.000000e+00
1
Step 362000
Ar -9.901991e-01 0.000000e+00 0.000000e+00
1
Step 363000
Ar -9.302204e-01 0.000000e+00 0.000000e+00
1
Step 364000
Ar -1.150964e+00 0.000000e+00 0.000000e+00
1
Step 365000
Ar -1.233848e+00 0.000000e+00 0.000000e+00
1
Step 366000
Ar -1.160019e+00 0.000000e+00 0.000000e+00
1
Step 367000
Ar -1.184824e+00 0.000000e+00 0.000000e+00
1
Step 368000
Ar -1.194664e+00 0.000000e+00 0.000000e+00
1
Step 369000
Ar -1.208097e+00 0.000000e+00 0.000000e+00
1
Step 370000
Ar -1.402178e+00 0.000000e+00 0.000000e+00
1
Step 371000
Ar -1.093137e+00 0.000000e+00 0.000000e+00
1
Step 372000
Ar -1.061729e+00 0.000000e+00 0.000000e+00
1
Step 373000
Ar -1.103027e+00 0.000000e+00 0.000000e+00
1
Step 374000
Ar -9.963011e-01 0.000000e+00 0.000000e+00
1
Step 375000
Ar -7.466656e-01 0.000000e+00 0.000000e+00
1
Step 376000
Ar -8.163187e-01 0.000000e+00 0.000000e+00
1
Step 377000
Ar -1.147865e+00 0.000000e+00 0.000000e+00
1
Step 378000
Ar -1.151862e+00 0.000000e+00 0.000000e+00
1
Step 379000
Ar -9.494522e-01 0.000000e+00 0.000000e+00
1
Step 380000
Ar -9.455053e-01 0.000000e+00 0.000000e+00
1
Step 381000
Ar -9.164904e-01 0.000000e+00 0.000000e+00
1
Step 382000
Ar -8.168218e-01 0.000000e+00 0.000000e+00
1
Step 383000
Ar -8.378638e-01 0.000000e+00 0.000000e+00
1
Step 384000
Ar -8.250196e-01 0.000000e+00 0.000000e+00
1
Step 385000
Ar -9.130018e-01 0.000000e+00 0.000000e+00
1
Step 386000
Ar -9.474846e-01 0.000000e+00 0.000000e+00
1
Step 387000
Ar -9.865355e-01 0.000000e+00 0.000000e+00
1
Step 388000
Ar -9.519704e-01 0.000000e+00 0.000000e+00
1
Step 389000
Ar -9.104549e-01 0.000000e+00 0.000000e+00
1
Step 390000
Ar -5.825102e-01 0.000000e+00 0.000000e+00
1
Step 391000
Ar -8.589160e-01 0.000000e+00 0.000000e+00
1
Step 392000
Ar -8.409007e-01 0.000000e+00 0.000000e+00
1
Step 393000
Ar -8.296290e-01 0.000000e+00 0.000000e+00
1
Step 394000
Ar -8.295111e-01 0.000000e+00 0.000000e+00
1
Step 395000
Ar -8.314704e-01 0.000000e+00 0.000000e+00
1
Step 396000
Ar -7.367253e-01 0.000000e+00 0.000000e+00
1
Step 397000
Ar -7.354790e-01 0.000000e+00 0.000000e+00
1
Step 398000
Ar -6.744152e-01 0.000000e+00 0.000000e+00
1
Step 399000
Ar -7.944924e-01 0.000000e+00 0.000000e+00
1
Step 400000
Ar -6.825935e-01 0.000000e+00 0.000000e+00
1
Step 401000
Ar -6.772710e-01 0.000000e+00 0.000000e+00
1
Step 402000
Ar -7.350041e-01 0.000000e+00 0.000000e+00
1
Step 403000
Ar -6.679136e-01 0.000000e+00 0.000000e+00
1
Step 404000
Ar -6.741482e-01 0.000000e+00 0.000000e+00
1
Step 405000
Ar -4.413247e-01 0.000000e+00 0.000000e+00
1
Step 406000
Ar -7.767190e-01 0.000000e+00 0.000000e+00
1
Step 407000
Ar -8.813700e-01 0.000000e+00 0.000000e+00
1
Step 408000
Ar -8.856453e-01 0.000000e+00 0.000000e+00
1
Step 409000
Ar -1.052220e+00 0.000000e+00 0.000000e+00
1
Step 410000
Ar -1.118350e+00 0.000000e+00 0.000000e+00
1
Step 411000
Ar -1.314630e+00 0.000000e+00 0.000000e+00
1
Step 412000
Ar -1.349531e+00 0.000000e+00 0.000000e+00
1
Step 413000
Ar -1.380308e+00 0.000000e+00 0.000000e+00
1
Step 414000
Ar -1.369029e+00 0.000000e+00 0.000000e+00
1
Step 415000
Ar -1.369069e+00 0.000000e+00 0.000000e+00
1
Step 416000
Ar -1.314335e+00 0.000000e+00 0.000000e+00
1
Step 417000
Ar -1.314290e+00 0.000000e+00 0.000000e+00
1
Step 418000
Ar -1.332902e+00 0.000000e+00 0.000000e+00
1
Step 419000
Ar -1.152608e+00 0.000000e+00 0.000000e+00
1
Step 420000
Ar -1.242996e+00 0.000000e+00 0.000000e+00
1
Step 421000
Ar -1.096785e+00 0.000000e+00 0.000000e+00
1
Step 422000
Ar -1.079429e+00 0.000000e+00 0.000000e+00
1
Step 423000
Ar -1.091186e+00 0.000000e+00 0.000000e+00
1
Step 424000
Ar -1.092206e+00 0.000000e+00 0.000000e+00
1
Step 425000
Ar -1.101715e+00 0.000000e+00 0.000000e+00
1
Step 426000
Ar -1.030782e+00 0.000000e+00 0.000000e+00
1
Step 427000
Ar -1.077751e+00 0.000000e+00 0.000000e+00
1
Step 428000
Ar -1.046887e+00 0.000000e+00 0.000000e+00
1
Step 429000
Ar -1.073102e+00 0.000000e+00 0.000000e+00
1
Step 430000
Ar -1.046229e+00 0.000000e+00 0.000000e+00
1
Step 431000
Ar -1.159583e+00 0.000000e+00 0.000000e+00
1
Step 432000
Ar -1.218799e+00 0.000000e+00 0.000000e+00
1
Step 433000
Ar -1.082360e+00 0.000000e+00 0.000000e+00
1
Step 434000
Ar -7.936124e-01 0.000000e+00 0.000000e+00
1
Step 435000
Ar -7.760963e-01 0.000000e+00 0.000000e+00
1
Step 436000
Ar -7.758017e-01 0.000000e+00 0.000000e+00
1
Step 437000
Ar -4.969786e-01 0.000000e+00 0.000000e+00
1
Step 438000
Ar -4.953969e-01 0.000000e+00 0.000000e+00
1
Step 439000
Ar -5.649032e-01 0.000000e+00 0.000000e+00
1
Step 440000
Ar -5.085069e-01 0.000000e+00 0.000000e+00
1
Step 441000
Ar -5.543687e-01 0.000000e+00 0.000000e+00
1
Step 442000
Ar -6.562023e-01 0.000000e+00 0.000000e+00
1
Step 443000
Ar -6.500712e-01 0.000000e+00 0.000000e+00
1
Step 444000
Ar -6.453335e-01 0.000000e+00 0.000000e+00
1
Step 445000
Ar -5.970593e-01 0.000000e+00 0.000000e+00
1
Step 446000
Ar 2.524633e-01 0.000000e+00 0.000000e+00
1
Step 447000
Ar -4.087667e-01 0.000000e+00 0.000000e+00
1
Step 448000
Ar -4.132489e-01 0.000000e+00 0.000000e+00
1
Step 449000
Ar -3.683198e-01 0.000000e+00 0.000000e+00
1
Step 450000
Ar -4.430198e-01 0.000000e+00 0.000000e+00
1
Step 451000
Ar -4.730474e-01 0.000000e+00 0.000000e+00
1
Step 452000
Ar -4.876507e-01 0.000000e+00 0.000000e+00
1
Step 453000
Ar -3.213714e-01 0.000000e+00 0.000000e+00
1
Step 454000
Ar -3.649429e-01 0.000000e+00 0.000000e+00
1
Step 455000
Ar -4.046522e-01 0.000000e+00 0.000000e+00
1
Step 456000
Ar -3.338800e-01 0.000000e+00 0.000000e+00
1
Step 457000
Ar 7.367034e-02 0.000000e+00 0.000000e+00
1
Step 458000
Ar -8.694659e-01 0.000000e+00 0.000000e+00
1
Step 459000
Ar -9.688573e-01 0.000000e+00 0.000000e+00
1
Step 460000
Ar -9.731024e-01 0.000000e+00 0.000000e+00
1
Step 461000
Ar -7.354518e-01 0.000000e+00 0.000000e+00
1
Step 462000
Ar -8.206933e-01 0.000000e+00 0.000000e+00
1
Step 463000
Ar -1.393789e+00 0.000000e+00 0.000000e+00
1
Step 464000
Ar -7.524909e-01 0.000000e+00 0.000000e+00
1
Step 465000
Ar -7.786855e-01 0.000000e+00 0.000000e+00
1
Step 466000
Ar -7.991149e-01 0.000000e+00 0.000000e+00
1
Step 467000
Ar -8.222908e-01 0.000000e+00 0.000000e+00
1
Step 468000
Ar -8.317096e-01 0.000000e+00 0.000000e+00
1
Step 469000
Ar -7.578508e-01 0.000000e+00 0.000000e+00
1
Step 470000
Ar -7.603299e-01 0.000000e+00 0.000000e+00
1
Step 471000
Ar -7.610402e-01 0.000000e+00 0.000000e+00
1
Step 472000
Ar -9.074158e-01 0.000000e+00 0.000000e+00
1
Step 473000
Ar -9.312828e-01 0.000000e+00 0.000000e+00
1
Step 474000
Ar -9.317983e-01 0.000000e+00 0.000000e+00
1
Step 475000
Ar -9.313210e-01 0.000000e+00 0.000000e+00
1
Step 476000
Ar -9.739158e-01 0.000000e+00 0.000000e+00
1
Step 477000
Ar -9.274537e-01 0.000000e+00 0.000000e+00
1
Step 478000
Ar -1.007046e+00 0.000000e+00 0.000000e+00
1
Step 479000
Ar -9.998779e-01 0.000000e+00 0.000000e+00
1
Step 480000
Ar -9.381548e-01 0.000000e+00 0.000000e+00
1
Step 481000
Ar -9.509694e-01 0.000000e+00 0.000000e+00
1
Step 482000
Ar -9.336017e-01 0.000000e+00 0.000000e+00
1
Step 483000
Ar -8.708673e-01 0.000000e+00 0.000000e+00
1
Step 484000
Ar -5.166842e-01 0.000000e+00 0.000000e+00
1
Step 485000
Ar -4.721832e-01 0.000000e+00 0.000000e+00
1
Step 486000
Ar -4.689385e-01 0.000000e+00 0.000000e+00
1
Step 487000
Ar -6.562452e-01 0.000000e+00 0.000000e+00
1
Step 488000
Ar -6.784367e-01 0.000000e+00 0.000000e+00
1
Step 489000
Ar -6.513034e-01 0.000000e+00 0.000000e+00
1
Step 490000
Ar -6.204932e-01 0.000000e+00 0.000000e+00
1
Step 491000
Ar -6.753503e-01 0.000000e+00 0.000000e+00
1
Step 492000
Ar -6.270235e-01 0.000000e+00 0.000000e+00
1
Step 493000
Ar 4.866210e-04 0.000000e+00 0.000000e+00
1
Step 494000
Ar -1.645512e-01 0.000000e+00 0.000000e+00
1
Step 495000
Ar -1.607064e-01 0.000000e+00 0.000000e+00
1
Step 496000
Ar -2.216398e-01 0.000000e+00 0.000000e+00
1
Step 497000
Ar 6.421265e-03 0.000000e+00 0.000000e+00
1
Step 498000
Ar -1.914239e-03 0.000000e+00 0.000000e+00
1
Step 499000
Ar 1.456849e-02 0.000000e+00 0.000000e+00
1
Step 500000
Ar 7.155419e-02 0.000000e+00 0.000000e+00
1
Step 501000
Ar 5.248541e-02 0.000000e+00 0.000000e+00
1
Step 502000
Ar 1.557860e-01 0.000000e+00 0.000000e+00
1
Step 503000
Ar 2.470677e-01 0.000000e+00 0.000000e+00
1
Step 504000
Ar 1.708319e-01 0.000000e+00 0.000000e+00
1
Step 505000
Ar 1.736005e-01 0.000000e+00 0.000000e+00
1
Step 506000
Ar 1.604775e-01 0.000000e+00 0.000000e+00
1
Step 507000
Ar 2.342182e-01 0.000000e+00 0.000000e+00
1
Step 508000
Ar 2.386520e-01 0.000000e+00 0.000000e+00
1
Step 509000
Ar 8.916316e-02 0.000000e+00 0.000000e+00
1
Step 510000
Ar 9.583077e-02 0.000000e+00 0.000000e+00
1
Step 511000
Ar 1.363947e-01 0.000000e+00 0.000000e+00
1
Step 512000
Ar 1.099084e-01 0.000000e+00 0.000000e+00
1
Step 513000
Ar 1.405539e-01 0.000000e+00 0.000000e+00
1
Step 514000
Ar 1.008273e-01 0.000000e+00 0.000000e+00
1
Step 515000
Ar 5.099583e-02 0.000000e+00 0.000000e+00
1
Step 516000
Ar 5.477519e-02 0.000000e+00 0.000000e+00
1
Step 517000
Ar 4.723474e-02 0.000000e+00 0.000000e+00
1
Step 518000
Ar 6.413810e-02 0.000000e+00 0.000000e+00
1
Step 519000
Ar 2.378177e-02 0.000000e+00 0.000000e+00
1
Step 520000
Ar 2.173210e-01 0.000000e+00 0.000000e+00
1
Step 521000
Ar 1.757033e-02 0.000000e+00 0.000000e+00
1
Step 522000
Ar 1.339714e-01 0.000000e+00 0.000000e+00
1
Step 523000
Ar 2.051372e-02 0.000000e+00 0.000000e+00
1
Step 524000
Ar 1.328224e-01 0.000000e+00 0.000000e+00
1
Step 525000
Ar 2.353053e-01 0.000000e+00 0.000000e+00
1
Step 526000
Ar 1.996615e-01 0.000000e+00 0.000000e+00
1
Step 527000
Ar 2.355619e-01 0.000000e+00 0.000000e+00
1
Step 528000
Ar 2.495308e-01 0.000000e+00 0.000000e+00
1
Step 529000
Ar 9.614435e-02 0.000000e+00 0.000000e+00
1
Step 530000
Ar 2.947765e-01 0.000000e+00 0.000000e+00
1
Step 531000
Ar 2.018904e-02 0.000000e+00 0.000000e+00
1
Step 532000
Ar 5.611812e-02 0.000000e+00 0.000000e+00
1
Step 533000
Ar 3.482517e-02 0.000000e+00 0.000000e+00
1
Step 534000
Ar 2.268544e-01 0.000000e+00 0.000000e+00
1
Step 535000
Ar 2.283947e-01 0.000000e+00 0.000000e+00
1
Step 536000
Ar 2.245288e-01 0.000000e+00 0.000000e+00
1
Step 537000
Ar 1.156686e-01 0.000000e+00 0.000000e+00
1
Step 538000
Ar 1.122546e-01 0.000000e+00 0.000000e+00
1
Step 539000
Ar 1.504158e-01 0.000000e+00 0.000000e+00
1
Step 540000
Ar 2.245035e-01 0.000000e+00 0.000000e+00
1
Step 541000
Ar 2.502726e-01 0.000000e+00 0.000000e+00
1
Step 542000
Ar 3.470904e-01 0.000000e+00 0.000000e+00
1
Step 543000
Ar 3.395600e-01 0.000000e+00 0.000000e+00
1
Step 544000
Ar 3.497453e-01 0.000000e+00 0.000000e+00
1
Step 545000
Ar 3.366616e-01 0.000000e+00 0.000000e+00
1
Step 546000
Ar 3.150012e-01 0.000000e+00 0.000000e+00
1
Step 547000
Ar 4.347071e-01 0.000000e+00 0.000000e+00
1
Step 548000
Ar 3.993460e-01 0.000000e+00 0.000000e+00
1
Step 549000
Ar 6.436795e-01 0.000000e+00 0.000000e+00
1
Step 550000
Ar 6.624620e-01 0.000000e+00 0.000000e+00
1
Step 551000
Ar 6.602372e-01 0.000000e+00 0.000000e+00
1
Step 552000
Ar 6.464255e-01 0.000000e+00 0.000000e+00
1
Step 553000
Ar 5.401496e-01 0.000000e+00 0.000000e+00
1
Step 554000
Ar 6.297201e-01 0.000000e+00 0.000000e+00
1
Step 555000
Ar 6.692808e-01 0.000000e+00 0.000000e+00
1
Step 556000
Ar 5.606340e-01 0.000000e+00 0.000000e+00
1
Step 557000
Ar 5.729911e-01 0.000000e+00 0.000000e+00
1
Step 558000
Ar 5.450042e-01 0.000000e+00 0.000000e+00
1
Step 559000
Ar 5.188628e-01 0.000000e+00 0.000000e+00
1
Step 560000
Ar 4.548421e-01 0.000000e+00 0.000000e+00
1
Step 561000
Ar 3.335638e-01 0.000000e+00 0.000000e+00
1
Step 562000
Ar 6.285852e-01 0.000000e+00 0.000000e+00
1
Step 563000
Ar 6.297460e-01 0.000000e+00 0.000000e+00
1
Step 564000
Ar -5.185522e-01 0.000000e+00 0.000000e+00
1
Step 565000
Ar -5.111700e-01 0.000000e+00 0.000000e+00
1
Step 566000
Ar -4.726392e-01 0.000000e+00 0.000000e+00
1
Step 567000
Ar -3.359723e-01 0.000000e+00 0.000000e+00
1
Step 568000
Ar -3.983846e-01 0.000000e+00 0.000000e+00
1
Step 569000
Ar -3.553320e-01 0.000000e+00 0.000000e+00
1
Step 570000
Ar -3.533270e-01 0.000000e+00 0.000000e+00
1
Step 571000
Ar -2.930539e-01 0.000000e+00 0.000000e+00
1
Step 572000
Ar -3.420368e-01 0.000000e+00 0.000000e+00
1
Step 573000
Ar -4.790174e-01 0.000000e+00 0.000000e+00
1
Step 574000
Ar -5.127607e-01 0.000000e+00 0.000000e+00
1
Step 575000
Ar -4.954248e-01 0.000000e+00 0.000000e+00
1
Step 576000
Ar -4.197413e-01 0.000000e+00 0.000000e+00
1
Step 577000
Ar -3.820489e-01 0.000000e+00 0.000000e+00
1
Step 578000
Ar -3.796074e-01 0.000000e+00 0.000000e+00
1
Step 579000
Ar -3.796466e-01 0.000000e+00 0.000000e+00
1
Step 580000
Ar -4.174048e-01 0.000000e+00 0.000000e+00
1
Step 581000
Ar -3.663980e-01 0.000000e+00 0.000000e+00
1
Step 582000
Ar -1.301850e+00 0.000000e+00 0.000000e+00
1
Step 583000
Ar -1.277182e+00 0.000000e+00 0.000000e+00
1
Step 584000
Ar -1.310321e+00 0.000000e+00 0.000000e+00
1
Step 585000
Ar -1.312538e+00 0.000000e+00 0.000000e+00
1
Step 586000
Ar -1.350480e+00 0.000000e+00 0.000000e+00
1
Step 587000
Ar -1.332829e+00 0.000000e+00 0.000000e+00
1
Step 588000
Ar -1.471132e+00 0.000000e+00 0.000000e+00
1
Step 589000
Ar -1.107078e+00 0.000000e+00 0.000000e+00
1
Step 590000
Ar -1.212736e+00 0.000000e+00 0.000000e+00
1
Step 591000
Ar -1.131844e+00 0.000000e+00 0.000000e+00
1
Step 592000
Ar -1.115323e+00 0.000000e+00 0.000000e+00
1
Step 593000
Ar -1.218751e+00 0.000000e+00 0.000000e+00
1
Step 594000
Ar -1.000879e+00 0.000000e+00 0.000000e+00
1
Step 595000
Ar -7.441948e-01 0.000000e+00 0.000000e+00
1
Step 596000
Ar -1.067357e+00 0.000000e+00 0.000000e+00
1
Step 597000
Ar -1.150175e+00 0.000000e+00 0.000000e+00
1
Step 598000
Ar -1.169469e+00 0.000000e+00 0.000000e+00
1
Step 599000
Ar -9.206762e-01 0.000000e+00 0.000000e+00
1
Step 600000
Ar -8.297491e-01 0.000000e+00 0.000000e+00
1
Step 601000
Ar -1.030152e+00 0.000000e+00 0.000000e+00
1
Step 602000
Ar -1.137219e+00 0.000000e+00 0.000000e+00
1
Step 603000
Ar -1.105244e+00 0.000000e+00 0.000000e+00
1
Step 604000
Ar -1.085481e+00 0.000000e+00 0.000000e+00
1
Step 605000
Ar -1.108372e+00 0.000000e+00 0.000000e+00
1
Step 606000
Ar -1.086598e+00 0.000000e+00 0.000000e+00
1
Step 607000
Ar -1.087121e+00 0.000000e+00 0.000000e+00
1
Step 608000
Ar -8.145611e-01 0.000000e+00 0.000000e+00
1
Step 609000
Ar -7.918511e-01 0.000000e+00 0.000000e+00
1
Step 610000
Ar -7.915767e-01 0.000000e+00 0.000000e+00
1
Step 611000
Ar -8.310365e-01 0.000000e+00 0.000000e+00
1
Step 612000
Ar -7.872285e-01 0.000000e+00 0.000000e+00
1
Step 613000
Ar -8.000062e-01 0.000000e+00 0.000000e+00
1
Step 614000
Ar -9.395072e-01 0.000000e+00 0.000000e+00
1
Step 615000
Ar -8.983310e-01 0.000000e+00 0.000000e+00
1
Step 616000
Ar -9.566209e-01 0.000000e+00 0.000000e+00
1
Step 617000
Ar -6.020131e-01 0.000000e+00 0.000000e+00
1
Step 618000
Ar -6.059626e-01 0.000000e+00 0.000000e+00
1
Step 619000
Ar -5.126765e-01 0.000000e+00 0.000000e+00
1
Step 620000
Ar -4.446003e-01 0.000000e+00 0.000000e+00
1
Step 621000
Ar -4.455448e-01 0.000000e+00 0.000000e+00
1
Step 622000
Ar -4.973769e-01 0.000000e+00 0.000000e+00
1
Step 623000
Ar -5.988651e-01 0.000000e+00 0.000000e+00
1
Step 624000
Ar -5.359703e-01 0.000000e+00 0.000000e+00
1
Step 625000
Ar -5.457732e-01 0.000000e+00 0.000000e+00
1
Step 626000
Ar -5.565734e-01 0.000000e+00 0.000000e+00
1
Step 627000
Ar -4.109303e-01 0.000000e+00 0.000000e+00
1
Step 628000
Ar -4.967368e-01 0.000000e+00 0.000000e+00
1
Step 629000
Ar -4.649745e-01 0.000000e+00 0.000000e+00
1
Step 630000
Ar -2.665367e-01 0.000000e+00 0.000000e+00
1
Step 631000
Ar -1.325503e-01 0.000000e+00 0.000000e+00
1
Step 632000
Ar -2.490011e-01 0.000000e+00 0.000000e+00
1
Step 633000
Ar -1.974126e-01 0.000000e+00 0.000000e+00
1
Step 634000
Ar -2.156341e-01 0.000000e+00 0.000000e+00
1
Step 635000
Ar -1.830414e-01 0.000000e+00 0.000000e+00
1
Step 636000
Ar -3.263024e-01 0.000000e+00 0.000000e+00
1
Step 637000
Ar -2.876686e-01 0.000000e+00 0.000000e+00
1
Step 638000
Ar -1.925812e-01 0.000000e+00 0.000000e+00
1
Step 639000
Ar -1.900202e-01 0.000000e+00 0.000000e+00
1
Step 640000
Ar -1.937441e-01 0.000000e+00 0.000000e+00
1
Step 641000
Ar -2.086096e-01 0.000000e+00 0.000000e+00
1
Step 642000
Ar -2.893120e-01 0.000000e+00 0.000000e+00
1
Step 643000
Ar -2.969100e-01 0.000000e+00 0.000000e+00
1
Step 644000
Ar -3.114134e-01 0.000000e+00 0.000000e+00
1
Step 645000
Ar -2.378686e-01 0.000000e+00 0.000000e+00
1
Step 646000
Ar -1.158319e-01 0.000000e+00 0.000000e+00
1
Step 647000
Ar -1.083785e-01 0.000000e+00 0.000000e+00
1
Step 648000
Ar -9.181442e-02 0.000000e+00 0.000000e+00
1
Step 649000
Ar -3.277612e-01 0.000000e+00 0.000000e+00
1
Step 650000
Ar -1.639127e-01 0.000000e+00 0.000000e+00
1
Step 651000