1
Step 120000
Ar 9.959348e-01 0.000000e+00 0.000000e+00
1
Step 121000
Ar 9.844282e-01 0.000000e+00 0.000000e+00
1
Step 122000
Ar 1.000011e+00 0.000000e+00 0.000000e+00
1
Step 123000
Ar 1.001240e+00 0.000000e+00 0.000000e+00
1
Step 124000
Ar 1.002765e+00 0.000000e+00 0.000000e+00
1
Step 125000
Ar 1.005479e+00 0.000000e+00 0.000000e+00
1
Step 126000
Ar 1.020364e+00 0.000000e+00 0.000000e+00
1
Step 127000
Ar 1.029590e+00 0.000000e+00 0.000000e+00
1
Step 128000
Ar 1.029005e+00 0.000000e+00 0.000000e+00
1
Step 129000
Ar 1.025497e+00 0.000000e+00 0.000000e+00
1
Step 130000
Ar 1.016708e+00 0.000000e+00 0.000000e+00
1
Step 131000
Ar 1.028533e+00 0.000000e+00 0.000000e+00
1
Step 132000
Ar 1.038208e+00 0.000000e+00 0.000000e+00
1
Step 133000
Ar 1.031520e+00 0.000000e+00 0.000000e+00
1
Step 134000
Ar 1.028607e+00 0.000000e+00 0.000000e+00
1
Step 135000
Ar 1.030876e+00 0.000000e+00 0.000000e+00
1
Step 136000
Ar 9.774894e-01 0.000000e+00 0.000000e+00
1
Step 137000
Ar 9.896521e-01 0.000000e+00 0.000000e+00
1
Step 138000
Ar 9.870758e-01 0.000000e+00 0.000000e+00
1
Step 139000
Ar 9.787304e-01 0.000000e+00 0.000000e+00
1
Step 140000
Ar 9.849636e-01 0.000000e+00 0.000000e+00
1
Step 141000
Ar 9.680131e-01 0.000000e+00 0.000000e+00
1
Step 142000
Ar 9.644344e-01 0.000000e+00 0.000000e+00
1
Step 143000
Ar 9.648905e-01 0.000000e+00 0.000000e+00
1
Step 144000
Ar 9.634664e-01 0.000000e+00 0.000000e+00
1
Step 145000
Ar 9.501032e-01 0.000000e+00 0.000000e+00
1
Step 146000
Ar 1.037978e+00 0.000000e+00 0.000000e+00
1
Step 147000
Ar 1.047248e+00 0.000000e+00 0.000000e+00
1
Step 148000
Ar 1.044860e+00 0.000000e+00 0.000000e+00
1
Step 149000
Ar 1.042736e+00 0.000000e+00 0.000000e+00
1
Step 150000
Ar 1.049428e+00 0.000000e+00 0.000000e+00
1
Step 151000
Ar 9.754038e-01 0.000000e+00 0.000000e+00
1
Step 152000
Ar 9.626019e-01 0.000000e+00 0.000000e+00
1
Step 153000
Ar 9.650981e-01 0.000000e+00 0.000000e+00
1
Step 154000
Ar 9.713323e-01 0.000000e+00 0.000000e+00
1
Step 155000
Ar 9.669439e-01 0.000000e+00 0.000000e+00
1
Step 156000
Ar 1.036675e+00 0.000000e+00 0.000000e+00
1
Step 157000
Ar 9.598978e-01 0.000000e+00 0.000000e+00
1
Step 158000
Ar 9.415469e-01 0.000000e+00 0.000000e+00
1
Step 159000
Ar 9.365622e-01 0.000000e+00 0.000000e+00
1
Step 160000
Ar 9.369102e-01 0.000000e+00 0.000000e+00
1
Step 161000
Ar 9.984284e-01 0.000000e+00 0.000000e+00
1
Step 162000
Ar 1.059540e+00 0.000000e+00 0.000000e+00
1
Step 163000
Ar 1.061823e+00 0.000000e+00 0.000000e+00
1
Step 164000
Ar 1.064270e+00 0.000000e+00 0.000000e+00
1
Step 165000
Ar 1.061098e+00 0.000000e+00 0.000000e+00
1
Step 166000
Ar 9.966614e-01 0.000000e+00 0.000000e+00
1
Step 167000
Ar 1.000895e+00 0.000000e+00 0.000000e+00
1
Step 168000
Ar 9.969012e-01 0.000000e+00 0.000000e+00
1
Step 169000
Ar 9.984864e-01 0.000000e+00 0.000000e+00
1
Step 170000
Ar 9.955169e-01 0.000000e+00 0.000000e+00
1
Step 171000
Ar 9.003162e-01 0.000000e+00 0.000000e+00
1
Step 172000
Ar 1.071526e+00 0.000000e+00 0.000000e+00
1
Step 173000
Ar 1.073161e+00 0.000000e+00 0.000000e+00
1
Step 174000
Ar 1.071798e+00 0.000000e+00 0.000000e+00
1
Step 175000
Ar 1.008617e+00 0.000000e+00 0.000000e+00
1
Step 176000
Ar 9.807784e-01 0.000000e+00 0.000000e+00
1
Step 177000
Ar 1.076044e+00 0.000000e+00 0.000000e+00
1
Step 178000
Ar 1.072906e+00 0.000000e+00 0.000000e+00
1
Step 179000
Ar 1.070798e+00 0.000000e+00 0.000000e+00
1
Step 180000
Ar 1.069673e+00 0.000000e+00 0.000000e+00
1
Step 181000
Ar 1.109547e+00 0.000000e+00 0.000000e+00
1
Step 182000
Ar 9.168352e-01 0.000000e+00 0.000000e+00
1
Step 183000
Ar 9.229358e-01 0.000000e+00 0.000000e+00
1
Step 184000
Ar 9.224701e-01 0.000000e+00 0.000000e+00
1
Step 185000
Ar 9.161215e-01 0.000000e+00 0.000000e+00
1
Step 186000
Ar 1.052688e+00 0.000000e+00 0.000000e+00
1
Step 187000
Ar 9.103021e-01 0.000000e+00 0.000000e+00
1
Step 188000
Ar 9.046146e-01 0.000000e+00 0.000000e+00
1
Step 189000
Ar 9.079409e-01 0.000000e+00 0.000000e+00
1
Step 190000
Ar 9.045302e-01 0.000000e+00 0.000000e+00
1
Step 191000
Ar 1.079842e+00 0.000000e+00 0.000000e+00
1
Step 192000
Ar 1.082378e+00 0.000000e+00 0.000000e+00
1
Step 193000
Ar 1.083102e+00 0.000000e+00 0.000000e+00
1
Step 194000
Ar 1.081905e+00 0.000000e+00 0.000000e+00
1
Step 195000
Ar 1.081126e+00 0.000000e+00 0.000000e+00
1
Step 196000
Ar 9.916464e-01 0.000000e+00 0.000000e+00
1
Step 197000
Ar 9.943297e-01 0.000000e+00 0.000000e+00
1
Step 198000
Ar 1.090900e+00 0.000000e+00 0.000000e+00
1
Step 199000
Ar 1.024405e+00 0.000000e+00 0.000000e+00
1
Step 200000
Ar 8.869706e-01 0.000000e+00 0.000000e+00
1
Step 201000
Ar 8.961668e-01 0.000000e+00 0.000000e+00
1
Step 202000
Ar 1.192726e+00 0.000000e+00 0.000000e+00
1
Step 203000
Ar 1.073034e+00 0.000000e+00 0.000000e+00
1
Step 204000
Ar 9.766784e-01 0.000000e+00 0.000000e+00
1
Step 205000
Ar 1.037719e+00 0.000000e+00 0.000000e+00
1
Step 206000
Ar 9.876146e-01 0.000000e+00 0.000000e+00
1
Step 207000
Ar 9.233039e-01 0.000000e+00 0.000000e+00
1
Step 208000
Ar 9.310588e-01 0.000000e+00 0.000000e+00
1
Step 209000
Ar 9.799482e-01 0.000000e+00 0.000000e+00
1
Step 210000
Ar 9.732793e-01 0.000000e+00 0.000000e+00
1
Step 211000
Ar 1.129667e+00 0.000000e+00 0.000000e+00
1
Step 212000
Ar 1.088934e+00 0.000000e+00 0.000000e+00
1
Step 213000
Ar 9.786720e-01 0.000000e+00 0.000000e+00
1
Step 214000
Ar 9.904951e-01 0.000000e+00 0.000000e+00
1
Step 215000
Ar 9.833020e-01 0.000000e+00 0.000000e+00
1
Step 216000
Ar 9.969285e-01 0.000000e+00 0.000000e+00
1
Step 217000
Ar 9.957884e-01 0.000000e+00 0.000000e+00
1
Step 218000
Ar 9.931667e-01 0.000000e+00 0.000000e+00
1
Step 219000
Ar 9.265884e-01 0.000000e+00 0.000000e+00
1
Step 220000
Ar 8.960764e-01 0.000000e+00 0.000000e+00
1
Step 221000
Ar 9.966815e-01 0.000000e+00 0.000000e+00
1
Step 222000
Ar 9.944782e-01 0.000000e+00 0.000000e+00
1
Step 223000
Ar 9.994398e-01 0.000000e+00 0.000000e+00
1
Step 224000
Ar 9.955053e-01 0.000000e+00 0.000000e+00
1
Step 225000
Ar 1.027923e+00 0.000000e+00 0.000000e+00
1
Step 226000
Ar 8.576259e-01 0.000000e+00 0.000000e+00
1
Step 227000
Ar 1.004286e+00 0.000000e+00 0.000000e+00
1
Step 228000
Ar 9.470619e-01 0.000000e+00 0.000000e+00
1
Step 229000
Ar 8.760983e-01 0.000000e+00 0.000000e+00
1
Step 230000
Ar 8.764001e-01 0.000000e+00 0.000000e+00
1
Step 231000
Ar 1.039952e+00 0.000000e+00 0.000000e+00
1
Step 232000
Ar 1.046126e+00 0.000000e+00 0.000000e+00
1
Step 233000
Ar 1.048546e+00 0.000000e+00 0.000000e+00
1
Step 234000
Ar 8.670106e-01 0.000000e+00 0.000000e+00
1
Step 235000
Ar 1.092476e+00 0.000000e+00 0.000000e+00
1
Step 236000
Ar 9.210518e-01 0.000000e+00 0.000000e+00
1
Step 237000
Ar 8.637776e-01 0.000000e+00 0.000000e+00
1
Step 238000
Ar 8.685746e-01 0.000000e+00 0.000000e+00
1
Step 239000
Ar 8.659277e-01 0.000000e+00 0.000000e+00
1
Step 240000
Ar 1.097257e+00 0.000000e+00 0.000000e+00
1
Step 241000
Ar 9.772236e-01 0.000000e+00 0.000000e+00
1
Step 242000
Ar 9.990152e-01 0.000000e+00 0.000000e+00
1
Step 243000
Ar 9.967503e-01 0.000000e+00 0.000000e+00
1
Step 244000
Ar 1.011143e+00 0.000000e+00 0.000000e+00
1
Step 245000
Ar 1.045005e+00 0.000000e+00 0.000000e+00
1
Step 246000
Ar 1.107192e+00 0.000000e+00 0.000000e+00
1
Step 247000
Ar 1.110189e+00 0.000000e+00 0.000000e+00
1
Step 248000
Ar 1.104695e+00 0.000000e+00 0.000000e+00
1
Step 249000
Ar 1.105785e+00 0.000000e+00 0.000000e+00
1
Step 250000
Ar 1.103703e+00 0.000000e+00 0.000000e+00
1
Step 251000
Ar 1.116392e+00 0.000000e+00 0.000000e+00
1
Step 252000
Ar 1.114247e+00 0.000000e+00 0.000000e+00
1
Step 253000
Ar 1.111839e+00 0.000000e+00 0.000000e+00
1
Step 254000
Ar 1.112303e+00 0.000000e+00 0.000000e+00
1
Step 255000
Ar 1.112731e+00 0.000000e+00 0.000000e+00
1
Step 256000
Ar 9.396781e-01 0.000000e+00 0.000000e+00
1
Step 257000
Ar 9.934941e-01 0.000000e+00 0.000000e+00
1
Step 258000
Ar 9.966892e-01 0.000000e+00 0.000000e+00
1
Step 259000
Ar 1.085247e+00 0.000000e+00 0.000000e+00
1
Step 260000
Ar 9.580160e-01 0.000000e+00 0.000000e+00
1
Step 261000
Ar 9.957353e-01 0.000000e+00 0.000000e+00
1
Step 262000
Ar 9.942186e-01 0.000000e+00 0.000000e+00
1
Step 263000
Ar 9.666924e-01 0.000000e+00 0.000000e+00
1
Step 264000
Ar 9.410046e-01 0.000000e+00 0.000000e+00
1
Step 265000
Ar 1.020952e+00 0.000000e+00 0.000000e+00
1
Step 266000
Ar 1.002722e+00 0.000000e+00 0.000000e+00
1
Step 267000
Ar 9.766916e-01 0.000000e+00 0.000000e+00
1
Step 268000
Ar 9.690641e-01 0.000000e+00 0.000000e+00
1
Step 269000
Ar 8.659853e-01 0.000000e+00 0.000000e+00
1
Step 270000
Ar 1.119973e+00 0.000000e+00 0.000000e+00
1
Step 271000
Ar 1.038687e+00 0.000000e+00 0.000000e+00
1
Step 272000
Ar 9.972159e-01 0.000000e+00 0.000000e+00
1
Step 273000
Ar 9.935858e-01 0.000000e+00 0.000000e+00
1
Step 274000
Ar 9.960213e-01 0.000000e+00 0.000000e+00
1
Step 275000
Ar 9.916179e-01 0.000000e+00 0.000000e+00
1
Step 276000
Ar 9.429061e-01 0.000000e+00 0.000000e+00
1
Step 277000
Ar 8.450569e-01 0.000000e+00 0.000000e+00
1
Step 278000
Ar 9.270308e-01 0.000000e+00 0.000000e+00
1
Step 279000
Ar 8.628202e-01 0.000000e+00 0.000000e+00
1
Step 280000
Ar 8.702662e-01 0.000000e+00 0.000000e+00
1
Step 281000
Ar 9.645766e-01 0.000000e+00 0.000000e+00
1
Step 282000
Ar 1.024371e+00 0.000000e+00 0.000000e+00
1
Step 283000
Ar 9.449789e-01 0.000000e+00 0.000000e+00
1
Step 284000
Ar 9.310480e-01 0.000000e+00 0.000000e+00
1
Step 285000
Ar 9.738183e-01 0.000000e+00 0.000000e+00
1
Step 286000
Ar 9.276673e-01 0.000000e+00 0.000000e+00
1
Step 287000
Ar 9.252993e-01 0.000000e+00 0.000000e+00
1
Step 288000
Ar 9.390245e-01 0.000000e+00 0.000000e+00
1
Step 289000
Ar 1.041506e+00 0.000000e+00 0.000000e+00
1
Step 290000
Ar 9.448305e-01 0.000000e+00 0.000000e+00
1
Step 291000
Ar 9.275324e-01 0.000000e+00 0.000000e+00
1
Step 292000
Ar 9.289235e-01 0.000000e+00 0.000000e+00
1
Step 293000
Ar 1.050755e+00 0.000000e+00 0.000000e+00
1
Step 294000
Ar 1.012356e+00 0.000000e+00 0.000000e+00
1
Step 295000
Ar 1.024483e+00 0.000000e+00 0.000000e+00
1
Step 296000
Ar 1.038021e+00 0.000000e+00 0.000000e+00
1
Step 297000
Ar 9.630684e-01 0.000000e+00 0.000000e+00
1
Step 298000
Ar 9.583375e-01 0.000000e+00 0.000000e+00
1
Step 299000
Ar 9.585396e-01 0.000000e+00 0.000000e+00
1
Step 300000
Ar 1.007977e+00 0.000000e+00 0.000000e+00
1
Step 301000
Ar 9.618799e-01 0.000000e+00 0.000000e+00
1
Step 302000
Ar 9.603837e-01 0.000000e+00 0.000000e+00
1
Step 303000
Ar 9.547118e-01 0.000000e+00 0.000000e+00
1
Step 304000
Ar 9.044542e-01 0.000000e+00 0.000000e+00
1
Step 305000
Ar 7.303125e-01 0.000000e+00 0.000000e+00
1
Step 306000
Ar 1.065616e+00 0.000000e+00 0.000000e+00
1
Step 307000
Ar 1.053780e+00 0.000000e+00 0.000000e+00
1
Step 308000
Ar 1.055871e+00 0.000000e+00 0.000000e+00
1
Step 309000
Ar 9.277673e-01 0.000000e+00 0.000000e+00
1
Step 310000
Ar 9.265645e-01 0.000000e+00 0.000000e+00
1
Step 311000
Ar 9.277021e-01 0.000000e+00 0.000000e+00
1
Step 312000
Ar 9.439277e-01 0.000000e+00 0.000000e+00
1
Step 313000
Ar 9.618906e-01 0.000000e+00 0.000000e+00
1
Step 314000
Ar 9.615701e-01 0.000000e+00 0.000000e+00
1
Step 315000
Ar 9.619188e-01 0.000000e+00 0.000000e+00
1
Step 316000
Ar 9.358270e-01 0.000000e+00 0.000000e+00
1
Step 317000
Ar 9.339967e-01 0.000000e+00 0.000000e+00
1
Step 318000
Ar 9.354683e-01 0.000000e+00 0.000000e+00
1
Step 319000
Ar 9.324371e-01 0.000000e+00 0.000000e+00
1
Step 320000
Ar 9.394659e-01 0.000000e+00 0.000000e+00
1
Step 321000
Ar 1.084835e+00 0.000000e+00 0.000000e+00
1
Step 322000
Ar 9.544994e-01 0.000000e+00 0.000000e+00
1
Step 323000
Ar 1.166669e+00 0.000000e+00 0.000000e+00
1
Step 324000
Ar 9.786406e-01 0.000000e+00 0.000000e+00
1
Step 325000
Ar 8.542046e-01 0.000000e+00 0.000000e+00
1
Step 326000
Ar 9.960086e-01 0.000000e+00 0.000000e+00
1
Step 327000
Ar 9.347635e-01 0.000000e+00 0.000000e+00
1
Step 328000
Ar 9.275483e-01 0.000000e+00 0.000000e+00
1
Step 329000
Ar 1.053683e+00 0.000000e+00 0.000000e+00
1
Step 330000
Ar 9.528644e-01 0.000000e+00 0.000000e+00
1
Step 331000
Ar 1.073215e+00 0.000000e+00 0.000000e+00
1
Step 332000
Ar 8.023230e-01 0.000000e+00 0.000000e+00
1
Step 333000
Ar 1.166887e+00 0.000000e+00 0.000000e+00
1
Step 334000
Ar 9.252429e-01 0.000000e+00 0.000000e+00
1
Step 335000
Ar 1.057196e+00 0.000000e+00 0.000000e+00
1
Step 336000
Ar 1.037896e+00 0.000000e+00 0.000000e+00
1
Step 337000
Ar 1.043177e+00 0.000000e+00 0.000000e+00
1
Step 338000
Ar 1.039347e+00 0.000000e+00 0.000000e+00
1
Step 339000
Ar 1.032441e+00 0.000000e+00 0.000000e+00
1
Step 340000
Ar 1.066582e+00 0.000000e+00 0.000000e+00
1
Step 341000
Ar 8.258187e-01 0.000000e+00 0.000000e+00
1
Step 342000
Ar 9.965322e-01 0.000000e+00 0.000000e+00
1
Step 343000
Ar 8.328484e-01 0.000000e+00 0.000000e+00
1
Step 344000
Ar 1.042072e+00 0.000000e+00 0.000000e+00
1
Step 345000
Ar 1.085549e+00 0.000000e+00 0.000000e+00
1
Step 346000
Ar 1.127961e+00 0.000000e+00 0.000000e+00
1
Step 347000
Ar 1.129872e+00 0.000000e+00 0.000000e+00
1
Step 348000
Ar 1.185702e+00 0.000000e+00 0.000000e+00
1
Step 349000
Ar 8.457477e-01 0.000000e+00 0.000000e+00
1
Step 350000
Ar 1.128531e+00 0.000000e+00 0.000000e+00
1
Step 351000
Ar 1.135836e+00 0.000000e+00 0.000000e+00
1
Step 352000
Ar 1.017566e+00 0.000000e+00 0.000000e+00
1
Step 353000
Ar 9.243167e-01 0.000000e+00 0.000000e+00
1
Step 354000
Ar 1.134331e+00 0.000000e+00 0.000000e+00
1
Step 355000
Ar 1.136216e+00 0.000000e+00 0.000000e+00
1
Step 356000
Ar 1.042686e+00 0.000000e+00 0.000000e+00
1
Step 357000
Ar 1.034523e+00 0.000000e+00 0.000000e+00
1
Step 358000
Ar 1.037813e+00 0.000000e+00 0.000000e+00
1
Step 359000
Ar 1.043261e+00 0.000000e+00 0.000000e+00
1
Step 360000
Ar 1.038532e+00 0.000000e+00 0.000000e+00
1
Step 361000
Ar 9.693193e-01 0.000000e+00 0.000000e+00
1
Step 362000
Ar 1.096539e+00 0.000000e+00 0.000000e+00
1
Step 363000
Ar 9.290666e-01 0.000000e+00 0.000000e+00
1
Step 364000
Ar 9.306097e-01 0.000000e+00 0.000000e+00
1
Step 365000
Ar 9.203050e-01 0.000000e+00 0.000000e+00
1
Step 366000
Ar 1.016958e+00 0.000000e+00 0.000000e+00
1
Step 367000
Ar 9.805811e-01 0.000000e+00 0.000000e+00
1
Step 368000
Ar 7.623893e-01 0.000000e+00 0.000000e+00
1
Step 369000
Ar 9.012842e-01 0.000000e+00 0.000000e+00
1
Step 370000
Ar 1.135659e+00 0.000000e+00 0.000000e+00
1
Step 371000
Ar 1.051866e+00 0.000000e+00 0.000000e+00
1
Step 372000
Ar 9.892876e-01 0.000000e+00 0.000000e+00
1
Step 373000
Ar 1.051613e+00 0.000000e+00 0.000000e+00
1
Step 374000
Ar 1.052846e+00 0.000000e+00 0.000000e+00
1
Step 375000
Ar 1.050043e+00 0.000000e+00 0.000000e+00
1
Step 376000
Ar 1.146779e+00 0.000000e+00 0.000000e+00
1
Step 377000
Ar 8.782719e-01 0.000000e+00 0.000000e+00
1
Step 378000
Ar 8.760407e-01 0.000000e+00 0.000000e+00
1
Step 379000
Ar 1.138190e+00 0.000000e+00 0.000000e+00
1
Step 380000
Ar 1.100666e+00 0.000000e+00 0.000000e+00
1
Step 381000
Ar 1.096996e+00 0.000000e+00 0.000000e+00
1
Step 382000
Ar 1.025783e+00 0.000000e+00 0.000000e+00
1
Step 383000
Ar 1.055901e+00 0.000000e+00 0.000000e+00
1
Step 384000
Ar 8.937749e-01 0.000000e+00 0.000000e+00
1
Step 385000
Ar 9.566747e-01 0.000000e+00 0.000000e+00
1
Step 386000
Ar 1.100060e+00 0.000000e+00 0.000000e+00
1
Step 387000
Ar 1.239837e+00 0.000000e+00 0.000000e+00
1
Step 388000
Ar 1.058952e+00 0.000000e+00 0.000000e+00
1
Step 389000
Ar 9.794815e-01 0.000000e+00 0.000000e+00
1
Step 390000
Ar 1.109378e+00 0.000000e+00 0.000000e+00
1
Step 391000
Ar 1.034654e+00 0.000000e+00 0.000000e+00
1
Step 392000
Ar 9.335423e-01 0.000000e+00 0.000000e+00
1
Step 393000
Ar 9.802356e-01 0.000000e+00 0.000000e+00
1
Step 394000
Ar 1.148024e+00 0.000000e+00 0.000000e+00
1
Step 395000
Ar 1.056574e+00 0.000000e+00 0.000000e+00
1
Step 396000
Ar 1.036358e+00 0.000000e+00 0.000000e+00
1
Step 397000
Ar 1.132245e+00 0.000000e+00 0.000000e+00
1
Step 398000
Ar 1.105473e+00 0.000000e+00 0.000000e+00
1
Step 399000
Ar 9.888466e-01 0.000000e+00 0.000000e+00
1
Step 400000
Ar 1.198803e+00 0.000000e+00 0.000000e+00
1
Step 401000
Ar 9.449765e-01 0.000000e+00 0.000000e+00
1
Step 402000
Ar 9.832031e-01 0.000000e+00 0.000000e+00
1
Step 403000
Ar 7.809662e-01 0.000000e+00 0.000000e+00
1
Step 404000
Ar 8.450300e-01 0.000000e+00 0.000000e+00
1
Step 405000
Ar 8.441504e-01 0.000000e+00 0.000000e+00
1
Step 406000
Ar 1.116648e+00 0.000000e+00 0.000000e+00
1
Step 407000
Ar 9.994542e-01 0.000000e+00 0.000000e+00
1
Step 408000
Ar 6.409336e-01 0.000000e+00 0.000000e+00
1
Step 409000
Ar 8.397020e-01 0.000000e+00 0.000000e+00
1
Step 410000
Ar 1.142896e+00 0.000000e+00 0.000000e+00
1
Step 411000
Ar 1.153041e+00 0.000000e+00 0.000000e+00
1
Step 412000
Ar 1.149259e+00 0.000000e+00 0.000000e+00
1
Step 413000
Ar 1.154175e+00 0.000000e+00 0.000000e+00
1
Step 414000
Ar 1.152541e+00 0.000000e+00 0.000000e+00
1
Step 415000
Ar 1.153835e+00 0.000000e+00 0.000000e+00
1
Step 416000
Ar 7.674728e-01 0.000000e+00 0.000000e+00
1
Step 417000
Ar 1.007378e+00 0.000000e+00 0.000000e+00
1
Step 418000
Ar 1.013856e+00 0.000000e+00 0.000000e+00
1
Step 419000
Ar 9.081237e-01 0.000000e+00 0.000000e+00
1
Step 420000
Ar 9.351239e-01 0.000000e+00 0.000000e+00
1
Step 421000
Ar 6.872626e-01 0.000000e+00 0.000000e+00
1
Step 422000
Ar 9.274695e-01 0.000000e+00 0.000000e+00
1
Step 423000
Ar 1.095748e+00 0.000000e+00 0.000000e+00
1
Step 424000
Ar 4.333278e-01 0.000000e+00 0.000000e+00
1
Step 425000
Ar 1.183342e+00 0.000000e+00 0.000000e+00
1
Step 426000
Ar 1.158170e+00 0.000000e+00 0.000000e+00
1
Step 427000
Ar 1.022915e+00 0.000000e+00 0.000000e+00
1
Step 428000
Ar 1.079364e+00 0.000000e+00 0.000000e+00
1
Step 429000
Ar 8.178083e-01 0.000000e+00 0.000000e+00
1
Step 430000
Ar 9.633138e-01 0.000000e+00 0.000000e+00
1
Step 431000
Ar 1.067846e+00 0.000000e+00 0.000000e+00
1
Step 432000
Ar 9.208213e-01 0.000000e+00 0.000000e+00
1
Step 433000
Ar 1.117457e+00 0.000000e+00 0.000000e+00
1
Step 434000
Ar 1.002336e+00 0.000000e+00 0.000000e+00
1
Step 435000
Ar 1.110154e+00 0.000000e+00 0.000000e+00
1
Step 436000
Ar 1.033874e+00 0.000000e+00 0.000000e+00
1
Step 437000
Ar 1.034540e+00 0.000000e+00 0.000000e+00
1
Step 438000
Ar 1.033023e+00 0.000000e+00 0.000000e+00
1
Step 439000
Ar 7.587033e-01 0.000000e+00 0.000000e+00
1
Step 440000
Ar 7.914633e-01 0.000000e+00 0.000000e+00
1
Step 441000
Ar 8.357716e-01 0.000000e+00 0.000000e+00
1
Step 442000
Ar 9.290258e-01 0.000000e+00 0.000000e+00
1
Step 443000
Ar 9.607174e-01 0.000000e+00 0.000000e+00
1
Step 444000
Ar 1.227661e+00 0.000000e+00 0.000000e+00
1
Step 445000
Ar 1.118396e+00 0.000000e+00 0.000000e+00
1
Step 446000
Ar 1.152705e+00 0.000000e+00 0.000000e+00
1
Step 447000
Ar 1.114084e+00 0.000000e+00 0.000000e+00
1
Step 448000
Ar 1.186391e+00 0.000000e+00 0.000000e+00
1
Step 449000
Ar 9.736668e-01 0.000000e+00 0.000000e+00
1
Step 450000
Ar 6.388389e-01 0.000000e+00 0.000000e+00
1
Step 451000
Ar 8.518104e-01 0.000000e+00 0.000000e+00
1
Step 452000
Ar 6.459307e-01 0.000000e+00 0.000000e+00
1
Step 453000
Ar 1.023853e+00 0.000000e+00 0.000000e+00
1
Step 454000
Ar 8.557090e-01 0.000000e+00 0.000000e+00
1
Step 455000
Ar 1.222097e+00 0.000000e+00 0.000000e+00
1
Step 456000
Ar 1.070494e+00 0.000000e+00 0.000000e+00
1
Step 457000
Ar 9.299193e-01 0.000000e+00 0.000000e+00
1
Step 458000
Ar 9.974109e-01 0.000000e+00 0.000000e+00
1
Step 459000
Ar 9.071645e-01 0.000000e+00 0.000000e+00
1
Step 460000
Ar 1.085923e+00 0.000000e+00 0.000000e+00
1
Step 461000
Ar 8.794031e-01 0.000000e+00 0.000000e+00
1
Step 462000
Ar 8.651277e-01 0.000000e+00 0.000000e+00
1
Step 463000
Ar 9.823310e-01 0.000000e+00 0.000000e+00
1
Step 464000
Ar 8.566296e-01 0.000000e+00 0.000000e+00
1
Step 465000
Ar 1.017922e+00 0.000000e+00 0.000000e+00
1
Step 466000
Ar 1.022205e+00 0.000000e+00 0.000000e+00
1
Step 467000
Ar 1.018491e+00 0.000000e+00 0.000000e+00
1
Step 468000
Ar 9.643187e-01 0.000000e+00 0.000000e+00
1
Step 469000
Ar 9.318093e-01 0.000000e+00 0.000000e+00
1
Step 470000
Ar 1.034823e+00 0.000000e+00 0.000000e+00
1
Step 471000
Ar 9.299695e-01 0.000000e+00 0.000000e+00
1
Step 472000
Ar 1.282604e+00 0.000000e+00 0.000000e+00
1
Step 473000
Ar 1.087500e+00 0.000000e+00 0.000000e+00
1
Step 474000
Ar 9.372807e-01 0.000000e+00 0.000000e+00
1
Step 475000
Ar 1.128622e+00 0.000000e+00 0.000000e+00
1
Step 476000
Ar 1.034562e+00 0.000000e+00 0.000000e+00
1
Step 477000
Ar 1.146977e+00 0.000000e+00 0.000000e+00
1
Step 478000
Ar 1.139388e+00 0.000000e+00 0.000000e+00
1
Step 479000
Ar 1.103658e+00 0.000000e+00 0.000000e+00
1
Step 480000
Ar 8.346798e-01 0.000000e+00 0.000000e+00
1
Step 481000
Ar 9.822881e-01 0.000000e+00 0.000000e+00
1
Step 482000
Ar 1.130114e+00 0.000000e+00 0.000000e+00
1
Step 483000
Ar 8.484554e-01 0.000000e+00 0.000000e+00
1
Step 484000
Ar 1.010401e+00 0.000000e+00 0.000000e+00
1
Step 485000
Ar 9.441889e-01 0.000000e+00 0.000000e+00
1
Step 486000
Ar 8.235269e-01 0.000000e+00 0.000000e+00
1
Step 487000
Ar 1.158514e+00 0.000000e+00 0.000000e+00
1
Step 488000
Ar 9.750031e-01 0.000000e+00 0.000000e+00
1
Step 489000
Ar 1.147765e+00 0.000000e+00 0.000000e+00
1
Step 490000
Ar 1.067182e+00 0.000000e+00 0.000000e+00
1
Step 491000
Ar 9.091703e-01 0.000000e+00 0.000000e+00
1
Step 492000
Ar 7.912779e-01 0.000000e+00 0.000000e+00
1
Step 493000
Ar 7.411968e-01 0.000000e+00 0.000000e+00
1
Step 494000
Ar 8.755495e-01 0.000000e+00 0.000000e+00
1
Step 495000
Ar 9.223795e-01 0.000000e+00 0.000000e+00
1
Step 496000
Ar 1.148951e+00 0.000000e+00 0.000000e+00
1
Step 497000
Ar 1.147931e+00 0.000000e+00 0.000000e+00
1
Step 498000
Ar 1.147513e+00 0.000000e+00 0.000000e+00
1
Step 499000
Ar 1.142243e+00 0.000000e+00 0.000000e+00
1
Step 500000
Ar 7.845472e-01 0.000000e+00 0.000000e+00
1
Step 501000
Ar 1.215963e+00 0.000000e+00 0.000000e+00
1
Step 502000
Ar 9.363243e-01 0.000000e+00 0.000000e+00
1
Step 503000
Ar 7.737723e-01 0.000000e+00 0.000000e+00
1
Step 504000
Ar 9.121642e-01 0.000000e+00 0.000000e+00
1
Step 505000
Ar 1.210337e+00 0.000000e+00 0.000000e+00
1
Step 506000
Ar 1.092830e+00 0.000000e+00 0.000000e+00
1
Step 507000
Ar 9.507349e-01 0.000000e+00 0.000000e+00
1
Step 508000
Ar 8.556097e-01 0.000000e+00 0.000000e+00
1
Step 509000
Ar 1.205339e+00 0.000000e+00 0.000000e+00
1
Step 510000
Ar 9.067418e-01 0.000000e+00 0.000000e+00
1
Step 511000
Ar 1.147888e+00 0.000000e+00 0.000000e+00
1
Step 512000
Ar 1.144669e+00 0.000000e+00 0.000000e+00
1
Step 513000
Ar 1.143971e+00 0.000000e+00 0.000000e+00
1
Step 514000
Ar 1.149935e+00 0.000000e+00 0.000000e+00
1
Step 515000
Ar 1.146707e+00 0.000000e+00 0.000000e+00
1
Step 516000
Ar 7.074212e-01 0.000000e+00 0.000000e+00
1
Step 517000
Ar 1.163727e+00 0.000000e+00 0.000000e+00
1
Step 518000
Ar 1.160947e+00 0.000000e+00 0.000000e+00
1
Step 519000
Ar 1.162420e+00 0.000000e+00 0.000000e+00
1
Step 520000
Ar 1.158069e+00 0.000000e+00 0.000000e+00
1
Step 521000
Ar 8.386860e-01 0.000000e+00 0.000000e+00
1
Step 522000
Ar 1.050627e+00 0.000000e+00 0.000000e+00
1
Step 523000
Ar 8.983075e-01 0.000000e+00 0.000000e+00
1
Step 524000
Ar 8.604479e-01 0.000000e+00 0.000000e+00
1
Step 525000
Ar 1.200245e+00 0.000000e+00 0.000000e+00
1
Step 526000
Ar 9.395827e-01 0.000000e+00 0.000000e+00
1
Step 527000
Ar 1.092909e+00 0.000000e+00 0.000000e+00
1
Step 528000
Ar 1.030825e+00 0.000000e+00 0.000000e+00
1
Step 529000
Ar 1.277337e+00 0.000000e+00 0.000000e+00
1
Step 530000
Ar 1.124834e+00 0.000000e+00 0.000000e+00
1
Step 531000
Ar 1.119928e+00 0.000000e+00 0.000000e+00
1
Step 532000
Ar 1.167752e+00 0.000000e+00 0.000000e+00
1
Step 533000
Ar 1.069151e+00 0.000000e+00 0.000000e+00
1
Step 534000
Ar 9.879501e-01 0.000000e+00 0.000000e+00
1
Step 535000
Ar 1.010596e+00 0.000000e+00 0.000000e+00
1
Step 536000
Ar 9.997599e-01 0.000000e+00 0.000000e+00
1
Step 537000
Ar 8.950194e-01 0.000000e+00 0.000000e+00
1
Step 538000
Ar 5.179719e-01 0.000000e+00 0.000000e+00
1
Step 539000
Ar 9.286714e-01 0.000000e+00 0.000000e+00
1
Step 540000
Ar 1.015711e+00 0.000000e+00 0.000000e+00
1
Step 541000
Ar 8.930160e-01 0.000000e+00 0.000000e+00
1
Step 542000
Ar 9.011446e-01 0.000000e+00 0.000000e+00
1
Step 543000
Ar 8.966934e-01 0.000000e+00 0.000000e+00
1
Step 544000
Ar 9.001258e-01 0.000000e+00 0.000000e+00
1
Step 545000
Ar 8.954782e-01 0.000000e+00 0.000000e+00
1
Step 546000
Ar 1.020776e+00 0.000000e+00 0.000000e+00
1
Step 547000
Ar 1.258305e+00 0.000000e+00 0.000000e+00
1
Step 548000
Ar 8.248988e-01 0.000000e+00 0.000000e+00
1
Step 549000
Ar 8.314250e-01 0.000000e+00 0.000000e+00
1
Step 550000
Ar 7.080746e-01 0.000000e+00 0.000000e+00
1
Step 551000
Ar 9.025689e-01 0.000000e+00 0.000000e+00
1
Step 552000
Ar 8.639498e-01 0.000000e+00 0.000000e+00
1
Step 553000
Ar 8.731831e-01 0.000000e+00 0.000000e+00
1
Step 554000
Ar 7.615581e-01 0.000000e+00 0.000000e+00
1
Step 555000
Ar 9.658215e-01 0.000000e+00 0.000000e+00
1
Step 556000
Ar 9.960752e-01 0.000000e+00 0.000000e+00
1
Step 557000
Ar 9.534738e-01 0.000000e+00 0.000000e+00
1
Step 558000
Ar 8.659999e-01 0.000000e+00 0.000000e+00
1
Step 559000
Ar 1.226373e+00 0.000000e+00 0.000000e+00
1
Step 560000
Ar 8.776318e-01 0.000000e+00 0.000000e+00
1
Step 561000
Ar 1.073674e+00 0.000000e+00 0.000000e+00
1
Step 562000
Ar 8.685558e-01 0.000000e+00 0.000000e+00
1
Step 563000
Ar 7.173157e-01 0.000000e+00 0.000000e+00
1
Step 564000
Ar 1.137342e+00 0.000000e+00 0.000000e+00
1
Step 565000
Ar 1.272429e+00 0.000000e+00 0.000000e+00
1
Step 566000
Ar 9.794810e-01 0.000000e+00 0.000000e+00
1
Step 567000
Ar 9.499150e-01 0.000000e+00 0.000000e+00
1
Step 568000
Ar 9.446821e-01 0.000000e+00 0.000000e+00
1
Step 569000
Ar 9.503927e-01 0.000000e+00 0.000000e+00
1
Step 570000
Ar 2.415357e-01 0.000000e+00 0.000000e+00
1
Step 571000
Ar 8.339926e-01 0.000000e+00 0.000000e+00
1
Step 572000
Ar 1.127647e+00 0.000000e+00 0.000000e+00
1
Step 573000
Ar 9.544903e-01 0.000000e+00 0.000000e+00
1
Step 574000
Ar 9.521279e-01 0.000000e+00 0.000000e+00
1
Step 575000
Ar 9.486851e-01 0.000000e+00 0.000000e+00
1
Step 576000
Ar 1.166694e+00 0.000000e+00 0.000000e+00
1
Step 577000
Ar 1.167648e+00 0.000000e+00 0.000000e+00
1
Step 578000
Ar 1.164531e+00 0.000000e+00 0.000000e+00
1
Step 579000
Ar 1.166426e+00 0.000000e+00 0.000000e+00
1
Step 580000
Ar 1.165861e+00 0.000000e+00 0.000000e+00
1
Step 581000
Ar 1.091174e+00 0.000000e+00 0.000000e+00
1
Step 582000
Ar 8.838872e-01 0.000000e+00 0.000000e+00
1
Step 583000
Ar 1.156621e+00 0.000000e+00 0.000000e+00
1
Step 584000
Ar 9.121598e-01 0.000000e+00 0.000000e+00
1
Step 585000
Ar 1.029742e+00 0.000000e+00 0.000000e+00
1
Step 586000
Ar 1.089489e+00 0.000000e+00 0.000000e+00
1
Step 587000
Ar 1.076486e+00 0.000000e+00 0.000000e+00
1
Step 588000
Ar 1.053986e+00 0.000000e+00 0.000000e+00
1
Step 589000
Ar 1.025498e+00 0.000000e+00 0.000000e+00
1
Step 590000
Ar 9.451902e-01 0.000000e+00 0.000000e+00
1
Step 591000
Ar 9.741938e-01 0.000000e+00 0.000000e+00
1
Step 592000
Ar 9.819525e-01 0.000000e+00 0.000000e+00
1
Step 593000
Ar -1.005041e+00 0.000000e+00 0.000000e+00
1
Step 594000
Ar -1.004211e+00 0.000000e+00 0.000000e+00
1
Step 595000
Ar -9.879907e-01 0.000000e+00 0.000000e+00
1
Step 596000
Ar -1.022121e+00 0.000000e+00 0.000000e+00
1
Step 597000
Ar -1.011981e+00 0.000000e+00 0.000000e+00
1
Step 598000
Ar -1.002925e+00 0.000000e+00 0.000000e+00
1
Step 599000
Ar -1.018203e+00 0.000000e+00 0.000000e+00
1
Step 600000
Ar -1.004696e+00 0.000000e+00 0.000000e+00
1
Step 601000
Ar -1.013810e+00 0.000000e+00 0.000000e+00
1
Step 602000
Ar -1.022244e+00 0.000000e+00 0.000000e+00
1
Step 603000
Ar -1.024613e+00 0.000000e+00 0.000000e+00
1
Step 604000
Ar -1.028097e+00 0.000000e+00 0.000000e+00
1
Step 605000
Ar -1.025338e+00 0.000000e+00 0.000000e+00
1
Step 606000
Ar -9.762454e-01 0.000000e+00 0.000000e+00
1
Step 607000
Ar -9.765761e-01 0.000000e+00 0.000000e+00
1
Step 608000
Ar -9.750902e-01 0.000000e+00 0.000000e+00
1
Step 609000
Ar -9.761161e-01 0.000000e+00 0.000000e+00
1
Step 610000
Ar -9.688850e-01 0.000000e+00 0.000000e+00
1
Step 611000
Ar -1.041118e+00 0.000000e+00 0.000000e+00
1
Step 612000
Ar -1.041900e+00 0.000000e+00 0.000000e+00
1
Step 613000
Ar -1.043272e+00 0.000000e+00 0.000000e+00
1
Step 614000
Ar -1.034499e+00 0.000000e+00 0.000000e+00
1
Step 615000
Ar -1.037054e+00 0.000000e+00 0.000000e+00
1
Step 616000
Ar -1.051289e+00 0.000000e+00 0.000000e+00
1
Step 617000
Ar -1.047420e+00 0.000000e+00 0.000000e+00
1
Step 618000
Ar -1.048637e+00 0.000000e+00 0.000000e+00
1
Step 619000
Ar -1.046833e+00 0.000000e+00 0.000000e+00
1
Step 620000
Ar -1.050579e+00 0.000000e+00 0.000000e+00
1
Step 621000
Ar -1.064535e+00 0.000000e+00 0.000000e+00
1
Step 622000
Ar -1.062824e+00 0.000000e+00 0.000000e+00
1
Step 623000
Ar -1.061732e+00 0.000000e+00 0.000000e+00
1
Step 624000
Ar -1.062629e+00 0.000000e+00 0.000000e+00
1
Step 625000
Ar -1.060087e+00 0.000000e+00 0.000000e+00
1
Step 626000
Ar -1.068072e+00 0.000000e+00 0.000000e+00
1
Step 627000
Ar -1.071193e+00 0.000000e+00 0.000000e+00
1
Step 628000
Ar -1.075278e+00 0.000000e+00 0.000000e+00
1
Step 629000
Ar -9.558542e-01 0.000000e+00 0.000000e+00
1
Step 630000
Ar -9.514811e-01 0.000000e+00 0.000000e+00
1
Step 631000
Ar -1.038392e+00 0.000000e+00 0.000000e+00
1
Step 632000
Ar -9.377893e-01 0.000000e+00 0.000000e+00
1
Step 633000
Ar -9.401682e-01 0.000000e+00 0.000000e+00
1
Step 634000
Ar -9.359921e-01 0.000000e+00 0.000000e+00
1
Step 635000
Ar -9.396372e-01 0.000000e+00 0.000000e+00
1
Step 636000
Ar -9.825687e-01 0.000000e+00 0.000000e+00
1
Step 637000
Ar -1.040158e+00 0.000000e+00 0.000000e+00
1
Step 638000
Ar -1.007936e+00 0.000000e+00 0.000000e+00
1
Step 639000
Ar -9.771839e-01 0.000000e+00 0.000000e+00
1
Step 640000
Ar -1.016624e+00 0.000000e+00 0.000000e+00
1
Step 641000
Ar -1.074607e+00 0.000000e+00 0.000000e+00
1
Step 642000
Ar -1.081229e+00 0.000000e+00 0.000000e+00
1
Step 643000
Ar -1.068052e+00 0.000000e+00 0.000000e+00
1
Step 644000
Ar -1.072133e+00 0.000000e+00 0.000000e+00
1
Step 645000
Ar -1.069765e+00 0.000000e+00 0.000000e+00
1
Step 646000
Ar -1.031853e+00 0.000000e+00 0.000000e+00
1
Step 647000
Ar -9.948901e-01 0.000000e+00 0.000000e+00
1
Step 648000
Ar -9.945982e-01 0.000000e+00 0.000000e+00
1
Step 649000
Ar -9.280612e-01 0.000000e+00 0.000000e+00
1
Step 650000
Ar -9.233139e-01 0.000000e+00 0.000000e+00
1
Step 651000
Ar -1.014118e+00 0.000000e+00 0.000000e+00
1
Step 652000
Ar -9.955417e-01 0.000000e+00 0.000000e+00
1
Step 653000
Ar -9.764941e-01 0.000000e+00 0.000000e+00
1
Step 654000