1
Step 120000
Ar 8.714521e-01 0.000000e+00 0.000000e+00
1
Step 121000
Ar 9.228213e-01 0.000000e+00 0.000000e+00
1
Step 122000
Ar 1.079571e+00 0.000000e+00 0.000000e+00
1
Step 123000
Ar 1.192002e+00 0.000000e+00 0.000000e+00
1
Step 124000
Ar 8.032418e-01 0.000000e+00 0.000000e+00
1
Step 125000
Ar 1.072263e+00 0.000000e+00 0.000000e+00
1
Step 126000
Ar 9.843214e-01 0.000000e+00 0.000000e+00
1
Step 127000
Ar 8.473751e-01 0.000000e+00 0.000000e+00
1
Step 128000
Ar 9.457695e-01 0.000000e+00 0.000000e+00
1
Step 129000
Ar 8.363670e-01 0.000000e+00 0.000000e+00
1
Step 130000
Ar 8.033965e-01 0.000000e+00 0.000000e+00
1
Step 131000
Ar 9.450609e-01 0.000000e+00 0.000000e+00
1
Step 132000
Ar 9.349541e-01 0.000000e+00 0.000000e+00
1
Step 133000
Ar 9.678292e-01 0.000000e+00 0.000000e+00
1
Step 134000
Ar 9.220518e-01 0.000000e+00 0.000000e+00
1
Step 135000
Ar 8.855007e-01 0.000000e+00 0.000000e+00
1
Step 136000
Ar 8.899462e-01 0.000000e+00 0.000000e+00
1
Step 137000
Ar 8.866791e-01 0.000000e+00 0.000000e+00
1
Step 138000
Ar 8.852931e-01 0.000000e+00 0.000000e+00
1
Step 139000
Ar 8.868091e-01 0.000000e+00 0.000000e+00
1
Step 140000
Ar 8.857934e-01 0.000000e+00 0.000000e+00
1
Step 141000
Ar 7.348186e-01 0.000000e+00 0.000000e+00
1
Step 142000
Ar 7.633812e-01 0.000000e+00 0.000000e+00
1
Step 143000
Ar 7.974994e-01 0.000000e+00 0.000000e+00
1
Step 144000
Ar 8.053013e-01 0.000000e+00 0.000000e+00
1
Step 145000
Ar 7.199045e-01 0.000000e+00 0.000000e+00
1
Step 146000
Ar 7.800319e-01 0.000000e+00 0.000000e+00
1
Step 147000
Ar 7.855806e-01 0.000000e+00 0.000000e+00
1
Step 148000
Ar 7.911342e-01 0.000000e+00 0.000000e+00
1
Step 149000
Ar 8.071064e-01 0.000000e+00 0.000000e+00
1
Step 150000
Ar 7.814759e-01 0.000000e+00 0.000000e+00
1
Step 151000
Ar 7.848064e-01 0.000000e+00 0.000000e+00
1
Step 152000
Ar 9.257176e-01 0.000000e+00 0.000000e+00
1
Step 153000
Ar 9.328533e-01 0.000000e+00 0.000000e+00
1
Step 154000
Ar 1.128278e+00 0.000000e+00 0.000000e+00
1
Step 155000
Ar 1.125325e+00 0.000000e+00 0.000000e+00
1
Step 156000
Ar 1.088639e+00 0.000000e+00 0.000000e+00
1
Step 157000
Ar 1.096712e+00 0.000000e+00 0.000000e+00
1
Step 158000
Ar 1.180513e+00 0.000000e+00 0.000000e+00
1
Step 159000
Ar 1.123468e+00 0.000000e+00 0.000000e+00
1
Step 160000
Ar 1.114821e+00 0.000000e+00 0.000000e+00
1
Step 161000
Ar 1.109851e+00 0.000000e+00 0.000000e+00
1
Step 162000
Ar 1.088353e+00 0.000000e+00 0.000000e+00
1
Step 163000
Ar 1.091673e+00 0.000000e+00 0.000000e+00
1
Step 164000
Ar 1.091019e+00 0.000000e+00 0.000000e+00
1
Step 165000
Ar 1.123814e+00 0.000000e+00 0.000000e+00
1
Step 166000
Ar 1.140659e+00 0.000000e+00 0.000000e+00
1
Step 167000
Ar 1.086318e+00 0.000000e+00 0.000000e+00
1
Step 168000
Ar 1.062629e+00 0.000000e+00 0.000000e+00
1
Step 169000
Ar 1.041290e+00 0.000000e+00 0.000000e+00
1
Step 170000
Ar 1.049190e+00 0.000000e+00 0.000000e+00
1
Step 171000
Ar 1.038382e+00 0.000000e+00 0.000000e+00
1
Step 172000
Ar 1.049379e+00 0.000000e+00 0.000000e+00
1
Step 173000
Ar 1.031012e+00 0.000000e+00 0.000000e+00
1
Step 174000
Ar 1.043229e+00 0.000000e+00 0.000000e+00
1
Step 175000
Ar 1.041181e+00 0.000000e+00 0.000000e+00
1
Step 176000
Ar 1.045659e+00 0.000000e+00 0.000000e+00
1
Step 177000
Ar 1.044431e+00 0.000000e+00 0.000000e+00
1
Step 178000
Ar 1.121489e+00 0.000000e+00 0.000000e+00
1
Step 179000
Ar 1.127975e+00 0.000000e+00 0.000000e+00
1
Step 180000
Ar 1.018131e+00 0.000000e+00 0.000000e+00
1
Step 181000
Ar 1.015029e+00 0.000000e+00 0.000000e+00
1
Step 182000
Ar 1.012723e+00 0.000000e+00 0.000000e+00
1
Step 183000
Ar 9.831405e-01 0.000000e+00 0.000000e+00
1
Step 184000
Ar 9.802836e-01 0.000000e+00 0.000000e+00
1
Step 185000
Ar 9.789562e-01 0.000000e+00 0.000000e+00
1
Step 186000
Ar 9.751072e-01 0.000000e+00 0.000000e+00
1
Step 187000
Ar 9.880337e-01 0.000000e+00 0.000000e+00
1
Step 188000
Ar 9.740379e-01 0.000000e+00 0.000000e+00
1
Step 189000
Ar 9.787894e-01 0.000000e+00 0.000000e+00
1
Step 190000
Ar 9.803716e-01 0.000000e+00 0.000000e+00
1
Step 191000
Ar 9.755793e-01 0.000000e+00 0.000000e+00
1
Step 192000
Ar 9.815098e-01 0.000000e+00 0.000000e+00
1
Step 193000
Ar 9.722472e-01 0.000000e+00 0.000000e+00
1
Step 194000
Ar 9.800326e-01 0.000000e+00 0.000000e+00
1
Step 195000
Ar 9.768794e-01 0.000000e+00 0.000000e+00
1
Step 196000
Ar 9.774901e-01 0.000000e+00 0.000000e+00
1
Step 197000
Ar 9.762597e-01 0.000000e+00 0.000000e+00
1
Step 198000
Ar 9.745650e-01 0.000000e+00 0.000000e+00
1
Step 199000
Ar 9.725496e-01 0.000000e+00 0.000000e+00
1
Step 200000
Ar 9.755627e-01 0.000000e+00 0.000000e+00
1
Step 201000
Ar 1.113218e+00 0.000000e+00 0.000000e+00
1
Step 202000
Ar 1.244727e+00 0.000000e+00 0.000000e+00
1
Step 203000
Ar 1.242719e+00 0.000000e+00 0.000000e+00
1
Step 204000
Ar 1.385581e+00 0.000000e+00 0.000000e+00
1
Step 205000
Ar 1.212886e+00 0.000000e+00 0.000000e+00
1
Step 206000
Ar 1.219869e+00 0.000000e+00 0.000000e+00
1
Step 207000
Ar 1.225483e+00 0.000000e+00 0.000000e+00
1
Step 208000
Ar 3.264939e-01 0.000000e+00 0.000000e+00
1
Step 209000
Ar 7.000922e-01 0.000000e+00 0.000000e+00
1
Step 210000
Ar 6.094764e-01 0.000000e+00 0.000000e+00
1
Step 211000
Ar 6.694776e-01 0.000000e+00 0.000000e+00
1
Step 212000
Ar 6.902095e-01 0.000000e+00 0.000000e+00
1
Step 213000
Ar 5.784891e-01 0.000000e+00 0.000000e+00
1
Step 214000
Ar 6.737397e-01 0.000000e+00 0.000000e+00
1
Step 215000
Ar 7.012121e-01 0.000000e+00 0.000000e+00
1
Step 216000
Ar 6.830753e-01 0.000000e+00 0.000000e+00
1
Step 217000
Ar 6.879937e-01 0.000000e+00 0.000000e+00
1
Step 218000
Ar 6.857781e-01 0.000000e+00 0.000000e+00
1
Step 219000
Ar 7.018186e-01 0.000000e+00 0.000000e+00
1
Step 220000
Ar 4.882390e-01 0.000000e+00 0.000000e+00
1
Step 221000
Ar 6.065227e-01 0.000000e+00 0.000000e+00
1
Step 222000
Ar 6.197680e-01 0.000000e+00 0.000000e+00
1
Step 223000
Ar 5.531384e-01 0.000000e+00 0.000000e+00
1
Step 224000
Ar 5.713483e-01 0.000000e+00 0.000000e+00
1
Step 225000
Ar 1.317678e+00 0.000000e+00 0.000000e+00
1
Step 226000
Ar 1.299391e+00 0.000000e+00 0.000000e+00
1
Step 227000
Ar 1.164912e+00 0.000000e+00 0.000000e+00
1
Step 228000
Ar 1.165495e+00 0.000000e+00 0.000000e+00
1
Step 229000
Ar 1.166667e+00 0.000000e+00 0.000000e+00
1
Step 230000
Ar -1.051522e+00 0.000000e+00 0.000000e+00
1
Step 231000
Ar -7.627152e-01 0.000000e+00 0.000000e+00
1
Step 232000
Ar -9.775855e-01 0.000000e+00 0.000000e+00
1
Step 233000
Ar -1.132081e+00 0.000000e+00 0.000000e+00
1
Step 234000
Ar -1.213200e+00 0.000000e+00 0.000000e+00
1
Step 235000
Ar -1.294279e+00 0.000000e+00 0.000000e+00
1
Step 236000
Ar -1.144636e+00 0.000000e+00 0.000000e+00
1
Step 237000
Ar -1.279566e+00 0.000000e+00 0.000000e+00
1
Step 238000
Ar -1.239068e+00 0.000000e+00 0.000000e+00
1
Step 239000
Ar -1.261592e+00 0.000000e+00 0.000000e+00
1
Step 240000
Ar -1.266085e+00 0.000000e+00 0.000000e+00
1
Step 241000
Ar -1.242203e+00 0.000000e+00 0.000000e+00
1
Step 242000
Ar -1.215316e+00 0.000000e+00 0.000000e+00
1
Step 243000
Ar -1.271880e+00 0.000000e+00 0.000000e+00
1
Step 244000
Ar -1.276662e+00 0.000000e+00 0.000000e+00
1
Step 245000
Ar -1.268104e+00 0.000000e+00 0.000000e+00
1
Step 246000
Ar -1.273406e+00 0.000000e+00 0.000000e+00
1
Step 247000
Ar -1.274708e+00 0.000000e+00 0.000000e+00
1
Step 248000
Ar -1.269031e+00 0.000000e+00 0.000000e+00
1
Step 249000
Ar -1.276202e+00 0.000000e+00 0.000000e+00
1
Step 250000
Ar -1.276713e+00 0.000000e+00 0.000000e+00
1
Step 251000
Ar -1.271860e+00 0.000000e+00 0.000000e+00
1
Step 252000
Ar -1.271734e+00 0.000000e+00 0.000000e+00
1
Step 253000
Ar -1.271242e+00 0.000000e+00 0.000000e+00
1
Step 254000
Ar -1.314114e+00 0.000000e+00 0.000000e+00
1
Step 255000
Ar -1.336040e+00 0.000000e+00 0.000000e+00
1
Step 256000
Ar -1.353416e+00 0.000000e+00 0.000000e+00
1
Step 257000
Ar -1.335928e+00 0.000000e+00 0.000000e+00
1
Step 258000
Ar -1.360033e+00 0.000000e+00 0.000000e+00
1
Step 259000
Ar -1.340741e+00 0.000000e+00 0.000000e+00
1
Step 260000
Ar -1.327565e+00 0.000000e+00 0.000000e+00
1
Step 261000
Ar -1.352063e+00 0.000000e+00 0.000000e+00
1
Step 262000
Ar -1.354056e+00 0.000000e+00 0.000000e+00
1
Step 263000
Ar -1.404125e+00 0.000000e+00 0.000000e+00
1
Step 264000
Ar -1.429937e+00 0.000000e+00 0.000000e+00
1
Step 265000
Ar -1.353644e+00 0.000000e+00 0.000000e+00
1
Step 266000
Ar -1.380749e+00 0.000000e+00 0.000000e+00
1
Step 267000
Ar -1.359178e+00 0.000000e+00 0.000000e+00
1
Step 268000
Ar -1.324959e+00 0.000000e+00 0.000000e+00
1
Step 269000
Ar -1.323718e+00 0.000000e+00 0.000000e+00
1
Step 270000
Ar -8.831875e-01 0.000000e+00 0.000000e+00
1
Step 271000
Ar -1.077122e+00 0.000000e+00 0.000000e+00
1
Step 272000
Ar -9.708709e-01 0.000000e+00 0.000000e+00
1
Step 273000
Ar -1.015839e+00 0.000000e+00 0.000000e+00
1
Step 274000
Ar -9.147773e-01 0.000000e+00 0.000000e+00
1
Step 275000
Ar -9.146769e-01 0.000000e+00 0.000000e+00
1
Step 276000
Ar -1.030433e+00 0.000000e+00 0.000000e+00
1
Step 277000
Ar -9.669555e-01 0.000000e+00 0.000000e+00
1
Step 278000
Ar -9.387306e-01 0.000000e+00 0.000000e+00
1
Step 279000
Ar -1.033687e+00 0.000000e+00 0.000000e+00
1
Step 280000
Ar -9.242727e-01 0.000000e+00 0.000000e+00
1
Step 281000
Ar -1.036017e+00 0.000000e+00 0.000000e+00
1
Step 282000
Ar -9.170387e-01 0.000000e+00 0.000000e+00
1
Step 283000
Ar -1.024424e+00 0.000000e+00 0.000000e+00
1
Step 284000
Ar -9.486121e-01 0.000000e+00 0.000000e+00
1
Step 285000
Ar -9.294102e-01 0.000000e+00 0.000000e+00
1
Step 286000
Ar -1.002456e+00 0.000000e+00 0.000000e+00
1
Step 287000
Ar -9.435379e-01 0.000000e+00 0.000000e+00
1
Step 288000
Ar -9.490621e-01 0.000000e+00 0.000000e+00
1
Step 289000
Ar -9.575047e-01 0.000000e+00 0.000000e+00
1
Step 290000
Ar -8.852695e-01 0.000000e+00 0.000000e+00
1
Step 291000
Ar -8.177269e-01 0.000000e+00 0.000000e+00
1
Step 292000
Ar -8.809129e-01 0.000000e+00 0.000000e+00
1
Step 293000
Ar -8.359114e-01 0.000000e+00 0.000000e+00
1
Step 294000
Ar -5.901791e-01 0.000000e+00 0.000000e+00
1
Step 295000
Ar -8.353457e-01 0.000000e+00 0.000000e+00
1
Step 296000
Ar -6.850582e-01 0.000000e+00 0.000000e+00
1
Step 297000
Ar -7.952158e-01 0.000000e+00 0.000000e+00
1
Step 298000
Ar -4.639659e-01 0.000000e+00 0.000000e+00
1
Step 299000
Ar -8.765865e-01 0.000000e+00 0.000000e+00
1
Step 300000
Ar -7.045821e-01 0.000000e+00 0.000000e+00
1
Step 301000
Ar -7.206406e-01 0.000000e+00 0.000000e+00
1
Step 302000
Ar -7.292753e-01 0.000000e+00 0.000000e+00
1
Step 303000
Ar -3.664185e-01 0.000000e+00 0.000000e+00
1
Step 304000
Ar -7.091865e-01 0.000000e+00 0.000000e+00
1
Step 305000
Ar -6.368018e-01 0.000000e+00 0.000000e+00
1
Step 306000
Ar -7.196519e-01 0.000000e+00 0.000000e+00
1
Step 307000
Ar -7.260212e-01 0.000000e+00 0.000000e+00
1
Step 308000
Ar -7.441094e-01 0.000000e+00 0.000000e+00
1
Step 309000
Ar -7.393687e-01 0.000000e+00 0.000000e+00
1
Step 310000
Ar -7.387189e-01 0.000000e+00 0.000000e+00
1
Step 311000
Ar -7.292792e-01 0.000000e+00 0.000000e+00
1
Step 312000
Ar -7.335839e-01 0.000000e+00 0.000000e+00
1
Step 313000
Ar -7.850139e-01 0.000000e+00 0.000000e+00
1
Step 314000
Ar -8.525761e-01 0.000000e+00 0.000000e+00
1
Step 315000
Ar -9.500165e-01 0.000000e+00 0.000000e+00
1
Step 316000
Ar -9.536576e-01 0.000000e+00 0.000000e+00
1
Step 317000
Ar -9.656609e-01 0.000000e+00 0.000000e+00
1
Step 318000
Ar -9.569338e-01 0.000000e+00 0.000000e+00
1
Step 319000
Ar -9.550127e-01 0.000000e+00 0.000000e+00
1
Step 320000
Ar -9.499502e-01 0.000000e+00 0.000000e+00
1
Step 321000
Ar -9.524924e-01 0.000000e+00 0.000000e+00
1
Step 322000
Ar -9.908829e-01 0.000000e+00 0.000000e+00
1
Step 323000
Ar -1.009892e+00 0.000000e+00 0.000000e+00
1
Step 324000
Ar -1.019324e+00 0.000000e+00 0.000000e+00
1
Step 325000
Ar -1.052187e+00 0.000000e+00 0.000000e+00
1
Step 326000
Ar -1.000918e+00 0.000000e+00 0.000000e+00
1
Step 327000
Ar -1.000262e+00 0.000000e+00 0.000000e+00
1
Step 328000
Ar -9.956556e-01 0.000000e+00 0.000000e+00
1
Step 329000
Ar -9.921009e-01 0.000000e+00 0.000000e+00
1
Step 330000
Ar -9.860806e-01 0.000000e+00 0.000000e+00
1
Step 331000
Ar -1.041368e+00 0.000000e+00 0.000000e+00
1
Step 332000
Ar -1.034824e+00 0.000000e+00 0.000000e+00
1
Step 333000
Ar -1.039674e+00 0.000000e+00 0.000000e+00
1
Step 334000
Ar -1.050937e+00 0.000000e+00 0.000000e+00
1
Step 335000
Ar -1.038439e+00 0.000000e+00 0.000000e+00
1
Step 336000
Ar -1.057702e+00 0.000000e+00 0.000000e+00
1
Step 337000
Ar -1.032474e+00 0.000000e+00 0.000000e+00
1
Step 338000
Ar -1.031076e+00 0.000000e+00 0.000000e+00
1
Step 339000
Ar -1.038569e+00 0.000000e+00 0.000000e+00
1
Step 340000
Ar -1.044511e+00 0.000000e+00 0.000000e+00
1
Step 341000
Ar -1.041832e+00 0.000000e+00 0.000000e+00
1
Step 342000
Ar -1.031876e+00 0.000000e+00 0.000000e+00
1
Step 343000
Ar -1.028900e+00 0.000000e+00 0.000000e+00
1
Step 344000
Ar -1.040385e+00 0.000000e+00 0.000000e+00
1
Step 345000
Ar -1.028944e+00 0.000000e+00 0.000000e+00
1
Step 346000
Ar -1.030466e+00 0.000000e+00 0.000000e+00
1
Step 347000
Ar -1.028596e+00 0.000000e+00 0.000000e+00
1
Step 348000
Ar -1.045751e+00 0.000000e+00 0.000000e+00
1
Step 349000
Ar -1.054435e+00 0.000000e+00 0.000000e+00
1
Step 350000
Ar -1.038217e+00 0.000000e+00 0.000000e+00
1
Step 351000
Ar -6.688352e-01 0.000000e+00 0.000000e+00
1
Step 352000
Ar -6.822932e-01 0.000000e+00 0.000000e+00
1
Step 353000
Ar -6.301513e-01 0.000000e+00 0.000000e+00
1
Step 354000
Ar -6.969369e-01 0.000000e+00 0.000000e+00
1
Step 355000
Ar -1.384593e+00 0.000000e+00 0.000000e+00
1
Step 356000
Ar -1.391269e+00 0.000000e+00 0.000000e+00
1
Step 357000
Ar -1.369878e+00 0.000000e+00 0.000000e+00
1
Step 358000
Ar -1.380317e+00 0.000000e+00 0.000000e+00
1
Step 359000
Ar -1.405056e+00 0.000000e+00 0.000000e+00
1
Step 360000
Ar -1.410042e+00 0.000000e+00 0.000000e+00
1
Step 361000
Ar -1.300509e+00 0.000000e+00 0.000000e+00
1
Step 362000
Ar -1.300336e+00 0.000000e+00 0.000000e+00
1
Step 363000
Ar -1.388284e-01 0.000000e+00 0.000000e+00
1
Step 364000
Ar -5.873236e-01 0.000000e+00 0.000000e+00
1
Step 365000
Ar -5.566567e-01 0.000000e+00 0.000000e+00
1
Step 366000
Ar -6.629278e-01 0.000000e+00 0.000000e+00
1
Step 367000
Ar -6.763963e-01 0.000000e+00 0.000000e+00
1
Step 368000
Ar -4.743997e-01 0.000000e+00 0.000000e+00
1
Step 369000
Ar -5.780678e-01 0.000000e+00 0.000000e+00
1
Step 370000
Ar -5.889506e-01 0.000000e+00 0.000000e+00
1
Step 371000
Ar -6.576577e-01 0.000000e+00 0.000000e+00
1
Step 372000
Ar -6.756268e-01 0.000000e+00 0.000000e+00
1
Step 373000
Ar -6.733271e-01 0.000000e+00 0.000000e+00
1
Step 374000
Ar -6.792090e-01 0.000000e+00 0.000000e+00
1
Step 375000
Ar -6.192981e-01 0.000000e+00 0.000000e+00
1
Step 376000
Ar -6.373901e-01 0.000000e+00 0.000000e+00
1
Step 377000
Ar -6.412372e-01 0.000000e+00 0.000000e+00
1
Step 378000
Ar -6.141241e-01 0.000000e+00 0.000000e+00
1
Step 379000
Ar -5.934886e-01 0.000000e+00 0.000000e+00
1
Step 380000
Ar -6.132542e-01 0.000000e+00 0.000000e+00
1
Step 381000
Ar -6.044420e-01 0.000000e+00 0.000000e+00
1
Step 382000
Ar -5.882100e-01 0.000000e+00 0.000000e+00
1
Step 383000
Ar -5.558379e-01 0.000000e+00 0.000000e+00
1
Step 384000
Ar -5.322075e-01 0.000000e+00 0.000000e+00
1
Step 385000
Ar -5.079233e-01 0.000000e+00 0.000000e+00
1
Step 386000
Ar -5.283462e-01 0.000000e+00 0.000000e+00
1
Step 387000
Ar -5.238034e-01 0.000000e+00 0.000000e+00
1
Step 388000
Ar -5.369770e-01 0.000000e+00 0.000000e+00
1
Step 389000
Ar -5.316128e-01 0.000000e+00 0.000000e+00
1
Step 390000
Ar -5.094248e-01 0.000000e+00 0.000000e+00
1
Step 391000
Ar -4.908106e-01 0.000000e+00 0.000000e+00
1
Step 392000
Ar -5.266761e-01 0.000000e+00 0.000000e+00
1
Step 393000
Ar -5.037297e-01 0.000000e+00 0.000000e+00
1
Step 394000
Ar -5.061751e-01 0.000000e+00 0.000000e+00
1
Step 395000
Ar -5.055751e-01 0.000000e+00 0.000000e+00
1
Step 396000
Ar -5.284750e-01 0.000000e+00 0.000000e+00
1
Step 397000
Ar -5.016893e-01 0.000000e+00 0.000000e+00
1
Step 398000
Ar -5.175882e-01 0.000000e+00 0.000000e+00
1
Step 399000
Ar -5.228786e-01 0.000000e+00 0.000000e+00
1
Step 400000
Ar 1.406020e-01 0.000000e+00 0.000000e+00
1
Step 401000
Ar 4.219826e-02 0.000000e+00 0.000000e+00
1
Step 402000
Ar -4.427819e-01 0.000000e+00 0.000000e+00
1
Step 403000
Ar -3.422666e-01 0.000000e+00 0.000000e+00
1
Step 404000
Ar -4.436795e-01 0.000000e+00 0.000000e+00
1
Step 405000
Ar -3.488186e-01 0.000000e+00 0.000000e+00
1
Step 406000
Ar -4.294538e-01 0.000000e+00 0.000000e+00
1
Step 407000
Ar -1.923581e-01 0.000000e+00 0.000000e+00
1
Step 408000
Ar -3.424874e-01 0.000000e+00 0.000000e+00
1
Step 409000
Ar -1.186239e+00 0.000000e+00 0.000000e+00
1
Step 410000
Ar -1.182743e+00 0.000000e+00 0.000000e+00
1
Step 411000
Ar -1.148866e+00 0.000000e+00 0.000000e+00
1
Step 412000
Ar -1.140747e+00 0.000000e+00 0.000000e+00
1
Step 413000
Ar -1.163635e+00 0.000000e+00 0.000000e+00
1
Step 414000
Ar -1.180441e+00 0.000000e+00 0.000000e+00
1
Step 415000
Ar -1.185389e+00 0.000000e+00 0.000000e+00
1
Step 416000
Ar -1.184542e+00 0.000000e+00 0.000000e+00
1
Step 417000
Ar -1.088381e+00 0.000000e+00 0.000000e+00
1
Step 418000
Ar -1.089809e+00 0.000000e+00 0.000000e+00
1
Step 419000
Ar -1.085599e+00 0.000000e+00 0.000000e+00
1
Step 420000
Ar -1.088989e+00 0.000000e+00 0.000000e+00
1
Step 421000
Ar -1.093189e+00 0.000000e+00 0.000000e+00
1
Step 422000
Ar -1.043358e+00 0.000000e+00 0.000000e+00
1
Step 423000
Ar -1.038947e+00 0.000000e+00 0.000000e+00
1
Step 424000
Ar -1.038914e+00 0.000000e+00 0.000000e+00
1
Step 425000
Ar -1.036342e+00 0.000000e+00 0.000000e+00
1
Step 426000
Ar -1.045556e+00 0.000000e+00 0.000000e+00
1
Step 427000
Ar -1.042069e+00 0.000000e+00 0.000000e+00
1
Step 428000
Ar -8.228565e-01 0.000000e+00 0.000000e+00
1
Step 429000
Ar -8.149601e-01 0.000000e+00 0.000000e+00
1
Step 430000
Ar -8.525362e-01 0.000000e+00 0.000000e+00
1
Step 431000
Ar -8.140733e-01 0.000000e+00 0.000000e+00
1
Step 432000
Ar -7.877947e-01 0.000000e+00 0.000000e+00
1
Step 433000
Ar -8.075926e-01 0.000000e+00 0.000000e+00
1
Step 434000
Ar -8.403834e-01 0.000000e+00 0.000000e+00
1
Step 435000
Ar -7.783600e-01 0.000000e+00 0.000000e+00
1
Step 436000
Ar -8.631474e-01 0.000000e+00 0.000000e+00
1
Step 437000
Ar -7.904637e-01 0.000000e+00 0.000000e+00
1
Step 438000
Ar -8.594749e-01 0.000000e+00 0.000000e+00
1
Step 439000
Ar -8.505266e-01 0.000000e+00 0.000000e+00
1
Step 440000
Ar -8.764381e-01 0.000000e+00 0.000000e+00
1
Step 441000
Ar -8.362639e-01 0.000000e+00 0.000000e+00
1
Step 442000
Ar -8.353367e-01 0.000000e+00 0.000000e+00
1
Step 443000
Ar -7.725473e-01 0.000000e+00 0.000000e+00
1
Step 444000
Ar -7.752095e-01 0.000000e+00 0.000000e+00
1
Step 445000
Ar -8.532742e-01 0.000000e+00 0.000000e+00
1
Step 446000
Ar -7.968721e-01 0.000000e+00 0.000000e+00
1
Step 447000
Ar -7.915166e-01 0.000000e+00 0.000000e+00
1
Step 448000
Ar -7.836170e-01 0.000000e+00 0.000000e+00
1
Step 449000
Ar -7.822728e-01 0.000000e+00 0.000000e+00
1
Step 450000
Ar -7.750102e-01 0.000000e+00 0.000000e+00
1
Step 451000
Ar -7.669673e-01 0.000000e+00 0.000000e+00
1
Step 452000
Ar -7.767679e-01 0.000000e+00 0.000000e+00
1
Step 453000
Ar -7.787243e-01 0.000000e+00 0.000000e+00
1
Step 454000
Ar -7.661846e-01 0.000000e+00 0.000000e+00
1
Step 455000
Ar -7.706699e-01 0.000000e+00 0.000000e+00
1
Step 456000
Ar -7.284375e-01 0.000000e+00 0.000000e+00
1
Step 457000
Ar -8.365403e-01 0.000000e+00 0.000000e+00
1
Step 458000
Ar -9.232198e-01 0.000000e+00 0.000000e+00
1
Step 459000
Ar -9.249844e-01 0.000000e+00 0.000000e+00
1
Step 460000
Ar -1.140926e+00 0.000000e+00 0.000000e+00
1
Step 461000
Ar -1.153729e+00 0.000000e+00 0.000000e+00
1
Step 462000
Ar -1.155936e+00 0.000000e+00 0.000000e+00
1
Step 463000
Ar -1.154560e+00 0.000000e+00 0.000000e+00
1
Step 464000
Ar -1.156819e+00 0.000000e+00 0.000000e+00
1
Step 465000
Ar -1.158321e+00 0.000000e+00 0.000000e+00
1
Step 466000
Ar -1.186171e+00 0.000000e+00 0.000000e+00
1
Step 467000
Ar -1.181691e+00 0.000000e+00 0.000000e+00
1
Step 468000
Ar -7.771123e-01 0.000000e+00 0.000000e+00
1
Step 469000
Ar -8.330106e-01 0.000000e+00 0.000000e+00
1
Step 470000
Ar -8.356446e-01 0.000000e+00 0.000000e+00
1
Step 471000
Ar -8.329537e-01 0.000000e+00 0.000000e+00
1
Step 472000
Ar -8.411878e-01 0.000000e+00 0.000000e+00
1
Step 473000
Ar -8.299018e-01 0.000000e+00 0.000000e+00
1
Step 474000
Ar -8.383151e-01 0.000000e+00 0.000000e+00
1
Step 475000
Ar -8.356799e-01 0.000000e+00 0.000000e+00
1
Step 476000
Ar -8.342891e-01 0.000000e+00 0.000000e+00
1
Step 477000
Ar -8.426679e-01 0.000000e+00 0.000000e+00
1
Step 478000
Ar -1.435591e+00 0.000000e+00 0.000000e+00
1
Step 479000
Ar -1.413755e+00 0.000000e+00 0.000000e+00
1
Step 480000
Ar -1.425456e+00 0.000000e+00 0.000000e+00
1
Step 481000
Ar -1.390664e+00 0.000000e+00 0.000000e+00
1
Step 482000
Ar -1.412871e+00 0.000000e+00 0.000000e+00
1
Step 483000
Ar -1.397459e+00 0.000000e+00 0.000000e+00
1
Step 484000
Ar -1.395929e+00 0.000000e+00 0.000000e+00
1
Step 485000
Ar -1.402611e+00 0.000000e+00 0.000000e+00
1
Step 486000
Ar -1.453670e+00 0.000000e+00 0.000000e+00
1
Step 487000
Ar -1.462791e+00 0.000000e+00 0.000000e+00
1
Step 488000
Ar -1.409542e+00 0.000000e+00 0.000000e+00
1
Step 489000
Ar -1.423972e+00 0.000000e+00 0.000000e+00
1
Step 490000
Ar -1.424496e+00 0.000000e+00 0.000000e+00
1
Step 491000
Ar -1.435236e+00 0.000000e+00 0.000000e+00
1
Step 492000
Ar -1.431210e+00 0.000000e+00 0.000000e+00
1
Step 493000
Ar -1.412635e+00 0.000000e+00 0.000000e+00
1
Step 494000
Ar -1.459425e+00 0.000000e+00 0.000000e+00
1
Step 495000
Ar -1.462381e+00 0.000000e+00 0.000000e+00
1
Step 496000
Ar -1.457952e+00 0.000000e+00 0.000000e+00
1
Step 497000
Ar -1.459181e+00 0.000000e+00 0.000000e+00
1
Step 498000
Ar -1.469603e+00 0.000000e+00 0.000000e+00
1
Step 499000
Ar 7.406039e-01 0.000000e+00 0.000000e+00
1
Step 500000
Ar 7.472296e-01 0.000000e+00 0.000000e+00
1
Step 501000
Ar 7.402969e-01 0.000000e+00 0.000000e+00
1
Step 502000
Ar 7.414584e-01 0.000000e+00 0.000000e+00
1
Step 503000
Ar 7.427265e-01 0.000000e+00 0.000000e+00
1
Step 504000
Ar 7.425828e-01 0.000000e+00 0.000000e+00
1
Step 505000
Ar 7.429337e-01 0.000000e+00 0.000000e+00
1
Step 506000
Ar 7.348789e-01 0.000000e+00 0.000000e+00
1
Step 507000
Ar 8.305043e-01 0.000000e+00 0.000000e+00
1
Step 508000
Ar 8.431538e-01 0.000000e+00 0.000000e+00
1
Step 509000
Ar 8.825295e-01 0.000000e+00 0.000000e+00
1
Step 510000
Ar 1.135725e+00 0.000000e+00 0.000000e+00
1
Step 511000
Ar 1.158782e+00 0.000000e+00 0.000000e+00
1
Step 512000
Ar 8.521678e-01 0.000000e+00 0.000000e+00
1
Step 513000
Ar 8.524315e-01 0.000000e+00 0.000000e+00
1
Step 514000
Ar 8.581668e-01 0.000000e+00 0.000000e+00
1
Step 515000
Ar 8.523827e-01 0.000000e+00 0.000000e+00
1
Step 516000
Ar 7.336692e-01 0.000000e+00 0.000000e+00
1
Step 517000
Ar 7.092374e-01 0.000000e+00 0.000000e+00
1
Step 518000
Ar 7.054967e-01 0.000000e+00 0.000000e+00
1
Step 519000
Ar 7.109345e-01 0.000000e+00 0.000000e+00
1
Step 520000
Ar 7.138203e-01 0.000000e+00 0.000000e+00
1
Step 521000
Ar 7.125003e-01 0.000000e+00 0.000000e+00
1
Step 522000
Ar 7.062664e-01 0.000000e+00 0.000000e+00
1
Step 523000
Ar 7.021562e-01 0.000000e+00 0.000000e+00
1
Step 524000
Ar 7.301842e-01 0.000000e+00 0.000000e+00
1
Step 525000
Ar 7.329242e-01 0.000000e+00 0.000000e+00
1
Step 526000
Ar 7.315011e-01 0.000000e+00 0.000000e+00
1
Step 527000
Ar 7.301966e-01 0.000000e+00 0.000000e+00
1
Step 528000
Ar 7.075058e-01 0.000000e+00 0.000000e+00
1
Step 529000
Ar 7.121810e-01 0.000000e+00 0.000000e+00
1
Step 530000
Ar 7.118753e-01 0.000000e+00 0.000000e+00
1
Step 531000
Ar 7.095560e-01 0.000000e+00 0.000000e+00
1
Step 532000
Ar 7.076250e-01 0.000000e+00 0.000000e+00
1
Step 533000
Ar 7.118803e-01 0.000000e+00 0.000000e+00
1
Step 534000
Ar 7.083844e-01 0.000000e+00 0.000000e+00
1
Step 535000
Ar 6.112889e-01 0.000000e+00 0.000000e+00
1
Step 536000
Ar 6.225323e-01 0.000000e+00 0.000000e+00
1
Step 537000
Ar 7.329512e-01 0.000000e+00 0.000000e+00
1
Step 538000
Ar 7.327941e-01 0.000000e+00 0.000000e+00
1
Step 539000
Ar 7.330039e-01 0.000000e+00 0.000000e+00
1
Step 540000
Ar 7.300476e-01 0.000000e+00 0.000000e+00
1
Step 541000
Ar 7.301609e-01 0.000000e+00 0.000000e+00
1
Step 542000
Ar 8.938535e-01 0.000000e+00 0.000000e+00
1
Step 543000
Ar 8.946058e-01 0.000000e+00 0.000000e+00
1
Step 544000
Ar 8.973254e-01 0.000000e+00 0.000000e+00
1
Step 545000
Ar 9.233103e-01 0.000000e+00 0.000000e+00
1
Step 546000
Ar 9.234346e-01 0.000000e+00 0.000000e+00
1
Step 547000
Ar 9.250003e-01 0.000000e+00 0.000000e+00
1
Step 548000
Ar 8.255044e-01 0.000000e+00 0.000000e+00
1
Step 549000
Ar 8.308399e-01 0.000000e+00 0.000000e+00
1
Step 550000
Ar 8.279821e-01 0.000000e+00 0.000000e+00
1
Step 551000
Ar 8.306051e-01 0.000000e+00 0.000000e+00
1
Step 552000
Ar 7.495595e-01 0.000000e+00 0.000000e+00
1
Step 553000
Ar 7.508326e-01 0.000000e+00 0.000000e+00
1
Step 554000
Ar 6.244068e-01 0.000000e+00 0.000000e+00
1
Step 555000
Ar 6.125621e-01 0.000000e+00 0.000000e+00
1
Step 556000
Ar 6.069430e-01 0.000000e+00 0.000000e+00
1
Step 557000
Ar 6.143833e-01 0.000000e+00 0.000000e+00
1
Step 558000
Ar 5.421754e-01 0.000000e+00 0.000000e+00
1
Step 559000
Ar 3.011224e-01 0.000000e+00 0.000000e+00
1
Step 560000
Ar 5.548537e-01 0.000000e+00 0.000000e+00
1
Step 561000
Ar 5.315944e-01 0.000000e+00 0.000000e+00
1
Step 562000
Ar 5.644975e-01 0.000000e+00 0.000000e+00
1
Step 563000
Ar 5.392314e-01 0.000000e+00 0.000000e+00
1
Step 564000
Ar 5.464458e-01 0.000000e+00 0.000000e+00
1
Step 565000
Ar 4.518784e-01 0.000000e+00 0.000000e+00
1
Step 566000
Ar 5.249185e-01 0.000000e+00 0.000000e+00
1
Step 567000
Ar 4.823154e-01 0.000000e+00 0.000000e+00
1
Step 568000
Ar 4.185487e-01 0.000000e+00 0.000000e+00
1
Step 569000
Ar 3.716885e-01 0.000000e+00 0.000000e+00
1
Step 570000
Ar 4.362599e-01 0.000000e+00 0.000000e+00
1
Step 571000
Ar 3.822232e-01 0.000000e+00 0.000000e+00
1
Step 572000
Ar 4.087818e-01 0.000000e+00 0.000000e+00
1
Step 573000
Ar 3.580913e-01 0.000000e+00 0.000000e+00
1
Step 574000
Ar 4.081399e-01 0.000000e+00 0.000000e+00
1
Step 575000
Ar 5.023109e-01 0.000000e+00 0.000000e+00
1
Step 576000
Ar 5.206742e-01 0.000000e+00 0.000000e+00
1
Step 577000
Ar 5.170550e-01 0.000000e+00 0.000000e+00
1
Step 578000
Ar 5.038428e-01 0.000000e+00 0.000000e+00
1
Step 579000
Ar 4.945577e-01 0.000000e+00 0.000000e+00
1
Step 580000
Ar 6.870650e-01 0.000000e+00 0.000000e+00
1
Step 581000
Ar 1.331791e+00 0.000000e+00 0.000000e+00
1
Step 582000
Ar 1.411517e+00 0.000000e+00 0.000000e+00
1
Step 583000
Ar 1.407134e+00 0.000000e+00 0.000000e+00
1
Step 584000
Ar 1.381314e+00 0.000000e+00 0.000000e+00
1
Step 585000
Ar 1.398180e+00 0.000000e+00 0.000000e+00
1
Step 586000
Ar 1.377031e+00 0.000000e+00 0.000000e+00
1
Step 587000
Ar 1.396750e+00 0.000000e+00 0.000000e+00
1
Step 588000
Ar 1.372962e+00 0.000000e+00 0.000000e+00
1
Step 589000
Ar 1.382689e+00 0.000000e+00 0.000000e+00
1
Step 590000
Ar 1.414826e+00 0.000000e+00 0.000000e+00
1
Step 591000
Ar 1.418409e+00 0.000000e+00 0.000000e+00
1
Step 592000
Ar 1.369600e+00 0.000000e+00 0.000000e+00
1
Step 593000
Ar 1.371256e+00 0.000000e+00 0.000000e+00
1
Step 594000
Ar 1.377862e+00 0.000000e+00 0.000000e+00
1
Step 595000
Ar 1.394920e+00 0.000000e+00 0.000000e+00
1
Step 596000
Ar 1.395856e+00 0.000000e+00 0.000000e+00
1
Step 597000
Ar 1.375611e+00 0.000000e+00 0.000000e+00
1
Step 598000
Ar 1.377589e+00 0.000000e+00 0.000000e+00
1
Step 599000
Ar 1.370817e+00 0.000000e+00 0.000000e+00
1
Step 600000
Ar 1.417178e+00 0.000000e+00 0.000000e+00
1
Step 601000
Ar 1.404955e+00 0.000000e+00 0.000000e+00
1
Step 602000
Ar 1.394957e+00 0.000000e+00 0.000000e+00
1
Step 603000
Ar 1.377235e+00 0.000000e+00 0.000000e+00
1
Step 604000
Ar 1.375792e+00 0.000000e+00 0.000000e+00
1
Step 605000
Ar 1.372704e+00 0.000000e+00 0.000000e+00
1
Step 606000
Ar 1.374872e+00 0.000000e+00 0.000000e+00
1
Step 607000
Ar 1.413677e+00 0.000000e+00 0.000000e+00
1
Step 608000
Ar 1.402899e+00 0.000000e+00 0.000000e+00
1
Step 609000
Ar 4.054090e-01 0.000000e+00 0.000000e+00
1
Step 610000
Ar 4.115600e-01 0.000000e+00 0.000000e+00
1
Step 611000
Ar 4.057337e-01 0.000000e+00 0.000000e+00
1
Step 612000
Ar 4.107716e-01 0.000000e+00 0.000000e+00
1
Step 613000
Ar 4.075129e-01 0.000000e+00 0.000000e+00
1
Step 614000
Ar 4.087165e-01 0.000000e+00 0.000000e+00
1
Step 615000
Ar 4.146264e-01 0.000000e+00 0.000000e+00
1
Step 616000
Ar 4.119536e-01 0.000000e+00 0.000000e+00
1
Step 617000
Ar 4.102808e-01 0.000000e+00 0.000000e+00
1
Step 618000
Ar 4.093071e-01 0.000000e+00 0.000000e+00
1
Step 619000
Ar 4.104536e-01 0.000000e+00 0.000000e+00
1
Step 620000
Ar 4.109732e-01 0.000000e+00 0.000000e+00
1
Step 621000
Ar 4.100211e-01 0.000000e+00 0.000000e+00
1
Step 622000
Ar 4.120048e-01 0.000000e+00 0.000000e+00
1
Step 623000
Ar 4.116333e-01 0.000000e+00 0.000000e+00
1
Step 624000
Ar 4.130551e-01 0.000000e+00 0.000000e+00
1
Step 625000
Ar 4.154173e-01 0.000000e+00 0.000000e+00
1
Step 626000
Ar 3.722728e-01 0.000000e+00 0.000000e+00
1
Step 627000
Ar 3.726479e-01 0.000000e+00 0.000000e+00
1
Step 628000
Ar 3.580691e-01 0.000000e+00 0.000000e+00
1
Step 629000
Ar 3.585110e-01 0.000000e+00 0.000000e+00
1
Step 630000
Ar 3.848134e-01 0.000000e+00 0.000000e+00
1
Step 631000
Ar 3.733953e-01 0.000000e+00 0.000000e+00
1
Step 632000
Ar 3.481404e-01 0.000000e+00 0.000000e+00
1
Step 633000
Ar 3.598967e-01 0.000000e+00 0.000000e+00
1
Step 634000
Ar 3.891177e-01 0.000000e+00 0.000000e+00
1
Step 635000
Ar 3.860163e-01 0.000000e+00 0.000000e+00
1
Step 636000
Ar 3.844144e-01 0.000000e+00 0.000000e+00
1
Step 637000
Ar 3.914089e-01 0.000000e+00 0.000000e+00
1
Step 638000
Ar 1.387899e-01 0.000000e+00 0.000000e+00
1
Step 639000
Ar -8.464919e-02 0.000000e+00 0.000000e+00
1
Step 640000
Ar 3.102104e-01 0.000000e+00 0.000000e+00
1
Step 641000
Ar 2.495963e-01 0.000000e+00 0.000000e+00
1
Step 642000
Ar 2.687460e-01 0.000000e+00 0.000000e+00
1
Step 643000
Ar 2.525045e-01 0.000000e+00 0.000000e+00
1
Step 644000
Ar 2.676624e-01 0.000000e+00 0.000000e+00
1
Step 645000
Ar 2.953001e-01 0.000000e+00 0.000000e+00
1
Step 646000
Ar 2.351085e-01 0.000000e+00 0.000000e+00
1
Step 647000
Ar 2.800429e-01 0.000000e+00 0.000000e+00
1
Step 648000
Ar 2.720584e-01 0.000000e+00 0.000000e+00
1
Step 649000
Ar 2.200236e-01 0.000000e+00 0.000000e+00
1
Step 650000