1
Step 120000
Ar 1.114266e+00 0.000000e+00 0.000000e+00
1
Step 121000
Ar 9.847028e-01 0.000000e+00 0.000000e+00
1
Step 122000
Ar 9.256121e-01 0.000000e+00 0.000000e+00
1
Step 123000
Ar 8.791284e-01 0.000000e+00 0.000000e+00
1
Step 124000
Ar 1.123254e+00 0.000000e+00 0.000000e+00
1
Step 125000
Ar 1.018825e+00 0.000000e+00 0.000000e+00
1
Step 126000
Ar 7.907332e-01 0.000000e+00 0.000000e+00
1
Step 127000
Ar 8.343074e-01 0.000000e+00 0.000000e+00
1
Step 128000
Ar 7.197786e-01 0.000000e+00 0.000000e+00
1
Step 129000
Ar 1.003997e+00 0.000000e+00 0.000000e+00
1
Step 130000
Ar 9.991301e-01 0.000000e+00 0.000000e+00
1
Step 131000
Ar 9.243583e-01 0.000000e+00 0.000000e+00
1
Step 132000
Ar 8.715829e-01 0.000000e+00 0.000000e+00
1
Step 133000
Ar 9.554744e-01 0.000000e+00 0.000000e+00
1
Step 134000
Ar 8.816492e-01 0.000000e+00 0.000000e+00
1
Step 135000
Ar 9.165955e-01 0.000000e+00 0.000000e+00
1
Step 136000
Ar 9.533561e-01 0.000000e+00 0.000000e+00
1
Step 137000
Ar 9.736049e-01 0.000000e+00 0.000000e+00
1
Step 138000
Ar 9.339832e-01 0.000000e+00 0.000000e+00
1
Step 139000
Ar 9.418245e-01 0.000000e+00 0.000000e+00
1
Step 140000
Ar 9.797118e-01 0.000000e+00 0.000000e+00
1
Step 141000
Ar 8.181273e-01 0.000000e+00 0.000000e+00
1
Step 142000
Ar 8.664795e-01 0.000000e+00 0.000000e+00
1
Step 143000
Ar 8.766927e-01 0.000000e+00 0.000000e+00
1
Step 144000
Ar 8.444025e-01 0.000000e+00 0.000000e+00
1
Step 145000
Ar 7.565906e-01 0.000000e+00 0.000000e+00
1
Step 146000
Ar 6.918302e-01 0.000000e+00 0.000000e+00
1
Step 147000
Ar 6.545810e-01 0.000000e+00 0.000000e+00
1
Step 148000
Ar 6.984323e-01 0.000000e+00 0.000000e+00
1
Step 149000
Ar 7.344910e-01 0.000000e+00 0.000000e+00
1
Step 150000
Ar 6.516077e-01 0.000000e+00 0.000000e+00
1
Step 151000
Ar 5.412969e-01 0.000000e+00 0.000000e+00
1
Step 152000
Ar 5.596148e-01 0.000000e+00 0.000000e+00
1
Step 153000
Ar 6.097913e-01 0.000000e+00 0.000000e+00
1
Step 154000
Ar 2.427461e-01 0.000000e+00 0.000000e+00
1
Step 155000
Ar 5.956672e-01 0.000000e+00 0.000000e+00
1
Step 156000
Ar 6.778200e-01 0.000000e+00 0.000000e+00
1
Step 157000
Ar 7.414536e-01 0.000000e+00 0.000000e+00
1
Step 158000
Ar 6.770086e-01 0.000000e+00 0.000000e+00
1
Step 159000
Ar 6.962298e-01 0.000000e+00 0.000000e+00
1
Step 160000
Ar 7.409269e-01 0.000000e+00 0.000000e+00
1
Step 161000
Ar 8.912994e-01 0.000000e+00 0.000000e+00
1
Step 162000
Ar 8.943010e-01 0.000000e+00 0.000000e+00
1
Step 163000
Ar 8.599067e-01 0.000000e+00 0.000000e+00
1
Step 164000
Ar 8.478626e-01 0.000000e+00 0.000000e+00
1
Step 165000
Ar 8.898382e-01 0.000000e+00 0.000000e+00
1
Step 166000
Ar 8.631533e-01 0.000000e+00 0.000000e+00
1
Step 167000
Ar 8.677620e-01 0.000000e+00 0.000000e+00
1
Step 168000
Ar 8.700967e-01 0.000000e+00 0.000000e+00
1
Step 169000
Ar 8.643900e-01 0.000000e+00 0.000000e+00
1
Step 170000
Ar 8.231367e-01 0.000000e+00 0.000000e+00
1
Step 171000
Ar 1.190734e+00 0.000000e+00 0.000000e+00
1
Step 172000
Ar 1.124658e+00 0.000000e+00 0.000000e+00
1
Step 173000
Ar 1.186524e+00 0.000000e+00 0.000000e+00
1
Step 174000
Ar 1.201843e+00 0.000000e+00 0.000000e+00
1
Step 175000
Ar 1.037211e+00 0.000000e+00 0.000000e+00
1
Step 176000
Ar 1.104265e+00 0.000000e+00 0.000000e+00
1
Step 177000
Ar 1.227669e+00 0.000000e+00 0.000000e+00
1
Step 178000
Ar 1.164826e+00 0.000000e+00 0.000000e+00
1
Step 179000
Ar 1.076778e+00 0.000000e+00 0.000000e+00
1
Step 180000
Ar 1.111084e+00 0.000000e+00 0.000000e+00
1
Step 181000
Ar 1.206036e+00 0.000000e+00 0.000000e+00
1
Step 182000
Ar 1.124815e+00 0.000000e+00 0.000000e+00
1
Step 183000
Ar 1.129986e+00 0.000000e+00 0.000000e+00
1
Step 184000
Ar 1.150961e+00 0.000000e+00 0.000000e+00
1
Step 185000
Ar 1.162685e+00 0.000000e+00 0.000000e+00
1
Step 186000
Ar 1.148312e+00 0.000000e+00 0.000000e+00
1
Step 187000
Ar 1.129447e+00 0.000000e+00 0.000000e+00
1
Step 188000
Ar 1.135396e+00 0.000000e+00 0.000000e+00
1
Step 189000
Ar 1.122537e+00 0.000000e+00 0.000000e+00
1
Step 190000
Ar 1.142294e+00 0.000000e+00 0.000000e+00
1
Step 191000
Ar 1.185632e+00 0.000000e+00 0.000000e+00
1
Step 192000
Ar 1.195446e+00 0.000000e+00 0.000000e+00
1
Step 193000
Ar 1.188438e+00 0.000000e+00 0.000000e+00
1
Step 194000
Ar 1.179012e+00 0.000000e+00 0.000000e+00
1
Step 195000
Ar 1.224273e+00 0.000000e+00 0.000000e+00
1
Step 196000
Ar 1.241785e+00 0.000000e+00 0.000000e+00
1
Step 197000
Ar 1.242590e+00 0.000000e+00 0.000000e+00
1
Step 198000
Ar 1.401233e+00 0.000000e+00 0.000000e+00
1
Step 199000
Ar 1.271409e+00 0.000000e+00 0.000000e+00
1
Step 200000
Ar 1.260807e+00 0.000000e+00 0.000000e+00
1
Step 201000
Ar 1.008806e+00 0.000000e+00 0.000000e+00
1
Step 202000
Ar 1.064880e+00 0.000000e+00 0.000000e+00
1
Step 203000
Ar 1.088488e+00 0.000000e+00 0.000000e+00
1
Step 204000
Ar 1.062077e+00 0.000000e+00 0.000000e+00
1
Step 205000
Ar 1.065161e+00 0.000000e+00 0.000000e+00
1
Step 206000
Ar 1.051348e+00 0.000000e+00 0.000000e+00
1
Step 207000
Ar 1.051165e+00 0.000000e+00 0.000000e+00
1
Step 208000
Ar 1.048316e+00 0.000000e+00 0.000000e+00
1
Step 209000
Ar 1.052474e+00 0.000000e+00 0.000000e+00
1
Step 210000
Ar 1.050467e+00 0.000000e+00 0.000000e+00
1
Step 211000
Ar 1.080625e+00 0.000000e+00 0.000000e+00
1
Step 212000
Ar 1.080504e+00 0.000000e+00 0.000000e+00
1
Step 213000
Ar 1.083864e+00 0.000000e+00 0.000000e+00
1
Step 214000
Ar 1.082977e+00 0.000000e+00 0.000000e+00
1
Step 215000
Ar 1.089835e+00 0.000000e+00 0.000000e+00
1
Step 216000
Ar 1.075406e+00 0.000000e+00 0.000000e+00
1
Step 217000
Ar 1.073266e+00 0.000000e+00 0.000000e+00
1
Step 218000
Ar 1.079333e+00 0.000000e+00 0.000000e+00
1
Step 219000
Ar 1.076332e+00 0.000000e+00 0.000000e+00
1
Step 220000
Ar 1.077188e+00 0.000000e+00 0.000000e+00
1
Step 221000
Ar 9.599730e-01 0.000000e+00 0.000000e+00
1
Step 222000
Ar 9.648110e-01 0.000000e+00 0.000000e+00
1
Step 223000
Ar 9.521989e-01 0.000000e+00 0.000000e+00
1
Step 224000
Ar 9.597237e-01 0.000000e+00 0.000000e+00
1
Step 225000
Ar 9.474649e-01 0.000000e+00 0.000000e+00
1
Step 226000
Ar 8.773565e-01 0.000000e+00 0.000000e+00
1
Step 227000
Ar 8.624025e-01 0.000000e+00 0.000000e+00
1
Step 228000
Ar 8.591525e-01 0.000000e+00 0.000000e+00
1
Step 229000
Ar 8.749950e-01 0.000000e+00 0.000000e+00
1
Step 230000
Ar 8.671262e-01 0.000000e+00 0.000000e+00
1
Step 231000
Ar 9.033811e-01 0.000000e+00 0.000000e+00
1
Step 232000
Ar 9.072331e-01 0.000000e+00 0.000000e+00
1
Step 233000
Ar 9.040325e-01 0.000000e+00 0.000000e+00
1
Step 234000
Ar 9.028639e-01 0.000000e+00 0.000000e+00
1
Step 235000
Ar 9.058529e-01 0.000000e+00 0.000000e+00
1
Step 236000
Ar 8.499709e-01 0.000000e+00 0.000000e+00
1
Step 237000
Ar 8.399153e-01 0.000000e+00 0.000000e+00
1
Step 238000
Ar 8.411210e-01 0.000000e+00 0.000000e+00
1
Step 239000
Ar 8.490652e-01 0.000000e+00 0.000000e+00
1
Step 240000
Ar 8.430498e-01 0.000000e+00 0.000000e+00
1
Step 241000
Ar 7.822464e-01 0.000000e+00 0.000000e+00
1
Step 242000
Ar 7.870732e-01 0.000000e+00 0.000000e+00
1
Step 243000
Ar 7.752961e-01 0.000000e+00 0.000000e+00
1
Step 244000
Ar 8.027783e-01 0.000000e+00 0.000000e+00
1
Step 245000
Ar 7.706245e-01 0.000000e+00 0.000000e+00
1
Step 246000
Ar 6.241186e-01 0.000000e+00 0.000000e+00
1
Step 247000
Ar 6.254622e-01 0.000000e+00 0.000000e+00
1
Step 248000
Ar 6.134983e-01 0.000000e+00 0.000000e+00
1
Step 249000
Ar 6.231995e-01 0.000000e+00 0.000000e+00
1
Step 250000
Ar 6.150260e-01 0.000000e+00 0.000000e+00
1
Step 251000
Ar -1.039201e+00 0.000000e+00 0.000000e+00
1
Step 252000
Ar -1.002190e+00 0.000000e+00 0.000000e+00
1
Step 253000
Ar -1.027783e+00 0.000000e+00 0.000000e+00
1
Step 254000
Ar -9.469611e-01 0.000000e+00 0.000000e+00
1
Step 255000
Ar -6.361009e-01 0.000000e+00 0.000000e+00
1
Step 256000
Ar -5.729718e-01 0.000000e+00 0.000000e+00
1
Step 257000
Ar -5.564181e-01 0.000000e+00 0.000000e+00
1
Step 258000
Ar -5.557865e-01 0.000000e+00 0.000000e+00
1
Step 259000
Ar -4.940356e-01 0.000000e+00 0.000000e+00
1
Step 260000
Ar -5.004124e-01 0.000000e+00 0.000000e+00
1
Step 261000
Ar 5.381391e-01 0.000000e+00 0.000000e+00
1
Step 262000
Ar 4.972422e-01 0.000000e+00 0.000000e+00
1
Step 263000
Ar 5.546929e-01 0.000000e+00 0.000000e+00
1
Step 264000
Ar 4.341171e-01 0.000000e+00 0.000000e+00
1
Step 265000
Ar 5.322888e-01 0.000000e+00 0.000000e+00
1
Step 266000
Ar 4.419600e-01 0.000000e+00 0.000000e+00
1
Step 267000
Ar 3.814794e-01 0.000000e+00 0.000000e+00
1
Step 268000
Ar 2.691480e-01 0.000000e+00 0.000000e+00
1
Step 269000
Ar 5.075772e-01 0.000000e+00 0.000000e+00
1
Step 270000
Ar 4.855228e-01 0.000000e+00 0.000000e+00
1
Step 271000
Ar 5.857479e-01 0.000000e+00 0.000000e+00
1
Step 272000
Ar 5.769550e-01 0.000000e+00 0.000000e+00
1
Step 273000
Ar 5.518511e-01 0.000000e+00 0.000000e+00
1
Step 274000
Ar 5.799792e-01 0.000000e+00 0.000000e+00
1
Step 275000
Ar 5.649841e-01 0.000000e+00 0.000000e+00
1
Step 276000
Ar 6.072464e-01 0.000000e+00 0.000000e+00
1
Step 277000
Ar 6.325965e-01 0.000000e+00 0.000000e+00
1
Step 278000
Ar 6.359767e-01 0.000000e+00 0.000000e+00
1
Step 279000
Ar 6.248176e-01 0.000000e+00 0.000000e+00
1
Step 280000
Ar 6.353870e-01 0.000000e+00 0.000000e+00
1
Step 281000
Ar 5.215361e-01 0.000000e+00 0.000000e+00
1
Step 282000
Ar 5.050352e-01 0.000000e+00 0.000000e+00
1
Step 283000
Ar 4.988378e-01 0.000000e+00 0.000000e+00
1
Step 284000
Ar 5.180879e-01 0.000000e+00 0.000000e+00
1
Step 285000
Ar 5.036000e-01 0.000000e+00 0.000000e+00
1
Step 286000
Ar 5.805297e-01 0.000000e+00 0.000000e+00
1
Step 287000
Ar 5.772016e-01 0.000000e+00 0.000000e+00
1
Step 288000
Ar 5.787478e-01 0.000000e+00 0.000000e+00
1
Step 289000
Ar 5.794006e-01 0.000000e+00 0.000000e+00
1
Step 290000
Ar 5.825660e-01 0.000000e+00 0.000000e+00
1
Step 291000
Ar 8.027673e-01 0.000000e+00 0.000000e+00
1
Step 292000
Ar 7.858722e-01 0.000000e+00 0.000000e+00
1
Step 293000
Ar 8.079253e-01 0.000000e+00 0.000000e+00
1
Step 294000
Ar 7.940040e-01 0.000000e+00 0.000000e+00
1
Step 295000
Ar 7.949397e-01 0.000000e+00 0.000000e+00
1
Step 296000
Ar 7.827234e-01 0.000000e+00 0.000000e+00
1
Step 297000
Ar 7.800474e-01 0.000000e+00 0.000000e+00
1
Step 298000
Ar 7.822305e-01 0.000000e+00 0.000000e+00
1
Step 299000
Ar 7.833229e-01 0.000000e+00 0.000000e+00
1
Step 300000
Ar 7.855710e-01 0.000000e+00 0.000000e+00
1
Step 301000
Ar 6.815201e-01 0.000000e+00 0.000000e+00
1
Step 302000
Ar 7.177899e-01 0.000000e+00 0.000000e+00
1
Step 303000
Ar 7.207334e-01 0.000000e+00 0.000000e+00
1
Step 304000
Ar 6.784825e-01 0.000000e+00 0.000000e+00
1
Step 305000
Ar 7.192474e-01 0.000000e+00 0.000000e+00
1
Step 306000
Ar 7.288496e-01 0.000000e+00 0.000000e+00
1
Step 307000
Ar 7.307278e-01 0.000000e+00 0.000000e+00
1
Step 308000
Ar 7.341806e-01 0.000000e+00 0.000000e+00
1
Step 309000
Ar 7.310620e-01 0.000000e+00 0.000000e+00
1
Step 310000
Ar 7.321785e-01 0.000000e+00 0.000000e+00
1
Step 311000
Ar -4.803524e-01 0.000000e+00 0.000000e+00
1
Step 312000
Ar -3.586074e-01 0.000000e+00 0.000000e+00
1
Step 313000
Ar -4.877823e-01 0.000000e+00 0.000000e+00
1
Step 314000
Ar -1.649558e-01 0.000000e+00 0.000000e+00
1
Step 315000
Ar 2.453846e-01 0.000000e+00 0.000000e+00
1
Step 316000
Ar -4.224576e-01 0.000000e+00 0.000000e+00
1
Step 317000
Ar -2.484573e-01 0.000000e+00 0.000000e+00
1
Step 318000
Ar -4.782093e-01 0.000000e+00 0.000000e+00
1
Step 319000
Ar -3.258161e-03 0.000000e+00 0.000000e+00
1
Step 320000
Ar -3.744463e-01 0.000000e+00 0.000000e+00
1
Step 321000
Ar -2.900056e-01 0.000000e+00 0.000000e+00
1
Step 322000
Ar -3.166825e-01 0.000000e+00 0.000000e+00
1
Step 323000
Ar 2.164844e-01 0.000000e+00 0.000000e+00
1
Step 324000
Ar -3.223403e-01 0.000000e+00 0.000000e+00
1
Step 325000
Ar -3.273393e-01 0.000000e+00 0.000000e+00
1
Step 326000
Ar -4.092641e-01 0.000000e+00 0.000000e+00
1
Step 327000
Ar -4.800416e-01 0.000000e+00 0.000000e+00
1
Step 328000
Ar -4.768423e-01 0.000000e+00 0.000000e+00
1
Step 329000
Ar -4.607082e-01 0.000000e+00 0.000000e+00
1
Step 330000
Ar -4.283198e-01 0.000000e+00 0.000000e+00
1
Step 331000
Ar -9.275375e-01 0.000000e+00 0.000000e+00
1
Step 332000
Ar -9.836506e-01 0.000000e+00 0.000000e+00
1
Step 333000
Ar -9.739188e-01 0.000000e+00 0.000000e+00
1
Step 334000
Ar -7.395500e-01 0.000000e+00 0.000000e+00
1
Step 335000
Ar -8.154869e-01 0.000000e+00 0.000000e+00
1
Step 336000
Ar -6.992385e-01 0.000000e+00 0.000000e+00
1
Step 337000
Ar -7.756473e-01 0.000000e+00 0.000000e+00
1
Step 338000
Ar -7.727253e-01 0.000000e+00 0.000000e+00
1
Step 339000
Ar -7.042434e-01 0.000000e+00 0.000000e+00
1
Step 340000
Ar -7.566938e-01 0.000000e+00 0.000000e+00
1
Step 341000
Ar -7.763584e-01 0.000000e+00 0.000000e+00
1
Step 342000
Ar -7.944774e-01 0.000000e+00 0.000000e+00
1
Step 343000
Ar -8.029237e-01 0.000000e+00 0.000000e+00
1
Step 344000
Ar -7.743403e-01 0.000000e+00 0.000000e+00
1
Step 345000
Ar -8.041180e-01 0.000000e+00 0.000000e+00
1
Step 346000
Ar -7.839104e-01 0.000000e+00 0.000000e+00
1
Step 347000
Ar -7.879683e-01 0.000000e+00 0.000000e+00
1
Step 348000
Ar -7.743366e-01 0.000000e+00 0.000000e+00
1
Step 349000
Ar -7.854892e-01 0.000000e+00 0.000000e+00
1
Step 350000
Ar -7.822703e-01 0.000000e+00 0.000000e+00
1
Step 351000
Ar -7.918629e-01 0.000000e+00 0.000000e+00
1
Step 352000
Ar -7.981344e-01 0.000000e+00 0.000000e+00
1
Step 353000
Ar -7.907153e-01 0.000000e+00 0.000000e+00
1
Step 354000
Ar -7.917469e-01 0.000000e+00 0.000000e+00
1
Step 355000
Ar -7.907985e-01 0.000000e+00 0.000000e+00
1
Step 356000
Ar -1.057832e+00 0.000000e+00 0.000000e+00
1
Step 357000
Ar -8.617068e-01 0.000000e+00 0.000000e+00
1
Step 358000
Ar -8.674340e-01 0.000000e+00 0.000000e+00
1
Step 359000
Ar -9.824021e-01 0.000000e+00 0.000000e+00
1
Step 360000
Ar -9.658187e-01 0.000000e+00 0.000000e+00
1
Step 361000
Ar -1.094819e+00 0.000000e+00 0.000000e+00
1
Step 362000
Ar -1.007863e+00 0.000000e+00 0.000000e+00
1
Step 363000
Ar -1.127144e+00 0.000000e+00 0.000000e+00
1
Step 364000
Ar -1.127320e+00 0.000000e+00 0.000000e+00
1
Step 365000
Ar -1.099961e+00 0.000000e+00 0.000000e+00
1
Step 366000
Ar -9.397160e-01 0.000000e+00 0.000000e+00
1
Step 367000
Ar -9.117406e-01 0.000000e+00 0.000000e+00
1
Step 368000
Ar -8.430614e-01 0.000000e+00 0.000000e+00
1
Step 369000
Ar -9.513311e-01 0.000000e+00 0.000000e+00
1
Step 370000
Ar -8.958356e-01 0.000000e+00 0.000000e+00
1
Step 371000
Ar -9.468330e-01 0.000000e+00 0.000000e+00
1
Step 372000
Ar -9.518098e-01 0.000000e+00 0.000000e+00
1
Step 373000
Ar -9.243852e-01 0.000000e+00 0.000000e+00
1
Step 374000
Ar -9.158458e-01 0.000000e+00 0.000000e+00
1
Step 375000
Ar -9.207592e-01 0.000000e+00 0.000000e+00
1
Step 376000
Ar -8.617959e-01 0.000000e+00 0.000000e+00
1
Step 377000
Ar -8.400200e-01 0.000000e+00 0.000000e+00
1
Step 378000
Ar -8.826863e-01 0.000000e+00 0.000000e+00
1
Step 379000
Ar -8.342077e-01 0.000000e+00 0.000000e+00
1
Step 380000
Ar -8.265911e-01 0.000000e+00 0.000000e+00
1
Step 381000
Ar -8.843561e-01 0.000000e+00 0.000000e+00
1
Step 382000
Ar -8.623218e-01 0.000000e+00 0.000000e+00
1
Step 383000
Ar -8.709063e-01 0.000000e+00 0.000000e+00
1
Step 384000
Ar -8.635228e-01 0.000000e+00 0.000000e+00
1
Step 385000
Ar -8.649443e-01 0.000000e+00 0.000000e+00
1
Step 386000
Ar -8.401158e-01 0.000000e+00 0.000000e+00
1
Step 387000
Ar -8.461670e-01 0.000000e+00 0.000000e+00
1
Step 388000
Ar -8.533178e-01 0.000000e+00 0.000000e+00
1
Step 389000
Ar -8.404694e-01 0.000000e+00 0.000000e+00
1
Step 390000
Ar -8.458314e-01 0.000000e+00 0.000000e+00
1
Step 391000
Ar -1.236620e+00 0.000000e+00 0.000000e+00
1
Step 392000
Ar -1.206019e+00 0.000000e+00 0.000000e+00
1
Step 393000
Ar -1.156631e+00 0.000000e+00 0.000000e+00
1
Step 394000
Ar -1.115508e+00 0.000000e+00 0.000000e+00
1
Step 395000
Ar -1.147903e+00 0.000000e+00 0.000000e+00
1
Step 396000
Ar -1.213990e+00 0.000000e+00 0.000000e+00
1
Step 397000
Ar -1.210442e+00 0.000000e+00 0.000000e+00
1
Step 398000
Ar -1.183631e+00 0.000000e+00 0.000000e+00
1
Step 399000
Ar -1.208165e+00 0.000000e+00 0.000000e+00
1
Step 400000
Ar -1.176145e+00 0.000000e+00 0.000000e+00
1
Step 401000
Ar -1.213286e+00 0.000000e+00 0.000000e+00
1
Step 402000
Ar -1.201885e+00 0.000000e+00 0.000000e+00
1
Step 403000
Ar -1.235226e+00 0.000000e+00 0.000000e+00
1
Step 404000
Ar -1.237080e+00 0.000000e+00 0.000000e+00
1
Step 405000
Ar -1.190723e+00 0.000000e+00 0.000000e+00
1
Step 406000
Ar -1.215659e+00 0.000000e+00 0.000000e+00
1
Step 407000
Ar -1.217692e+00 0.000000e+00 0.000000e+00
1
Step 408000
Ar -1.286751e+00 0.000000e+00 0.000000e+00
1
Step 409000
Ar -1.245498e+00 0.000000e+00 0.000000e+00
1
Step 410000
Ar -1.223846e+00 0.000000e+00 0.000000e+00
1
Step 411000
Ar -1.200017e+00 0.000000e+00 0.000000e+00
1
Step 412000
Ar -1.203102e+00 0.000000e+00 0.000000e+00
1
Step 413000
Ar -1.204969e+00 0.000000e+00 0.000000e+00
1
Step 414000
Ar -1.204754e+00 0.000000e+00 0.000000e+00
1
Step 415000
Ar -1.204864e+00 0.000000e+00 0.000000e+00
1
Step 416000
Ar -1.211604e+00 0.000000e+00 0.000000e+00
1
Step 417000
Ar -1.239987e+00 0.000000e+00 0.000000e+00
1
Step 418000
Ar -1.268181e+00 0.000000e+00 0.000000e+00
1
Step 419000
Ar -1.310386e+00 0.000000e+00 0.000000e+00
1
Step 420000
Ar -1.239363e+00 0.000000e+00 0.000000e+00
1
Step 421000
Ar -1.271703e+00 0.000000e+00 0.000000e+00
1
Step 422000
Ar -1.260590e+00 0.000000e+00 0.000000e+00
1
Step 423000
Ar -1.262634e+00 0.000000e+00 0.000000e+00
1
Step 424000
Ar -1.266898e+00 0.000000e+00 0.000000e+00
1
Step 425000
Ar -1.278075e+00 0.000000e+00 0.000000e+00
1
Step 426000
Ar -1.303995e+00 0.000000e+00 0.000000e+00
1
Step 427000
Ar -1.341663e+00 0.000000e+00 0.000000e+00
1
Step 428000
Ar -1.306295e+00 0.000000e+00 0.000000e+00
1
Step 429000
Ar -1.290117e+00 0.000000e+00 0.000000e+00
1
Step 430000
Ar -1.294203e+00 0.000000e+00 0.000000e+00
1
Step 431000
Ar -1.365914e+00 0.000000e+00 0.000000e+00
1
Step 432000
Ar -1.358778e+00 0.000000e+00 0.000000e+00
1
Step 433000
Ar -1.317585e+00 0.000000e+00 0.000000e+00
1
Step 434000
Ar -1.305415e+00 0.000000e+00 0.000000e+00
1
Step 435000
Ar -1.318806e+00 0.000000e+00 0.000000e+00
1
Step 436000
Ar -1.305562e+00 0.000000e+00 0.000000e+00
1
Step 437000
Ar -1.306420e+00 0.000000e+00 0.000000e+00
1
Step 438000
Ar -1.308050e+00 0.000000e+00 0.000000e+00
1
Step 439000
Ar -1.306763e+00 0.000000e+00 0.000000e+00
1
Step 440000
Ar -1.302966e+00 0.000000e+00 0.000000e+00
1
Step 441000
Ar -1.334383e+00 0.000000e+00 0.000000e+00
1
Step 442000
Ar -1.354904e+00 0.000000e+00 0.000000e+00
1
Step 443000
Ar -1.344536e+00 0.000000e+00 0.000000e+00
1
Step 444000
Ar -1.393506e+00 0.000000e+00 0.000000e+00
1
Step 445000
Ar -1.331193e+00 0.000000e+00 0.000000e+00
1
Step 446000
Ar -1.345543e+00 0.000000e+00 0.000000e+00
1
Step 447000
Ar -1.346686e+00 0.000000e+00 0.000000e+00
1
Step 448000
Ar -1.424563e+00 0.000000e+00 0.000000e+00
1
Step 449000
Ar -1.348981e+00 0.000000e+00 0.000000e+00
1
Step 450000
Ar -1.382247e+00 0.000000e+00 0.000000e+00
1
Step 451000
Ar -1.398447e+00 0.000000e+00 0.000000e+00
1
Step 452000
Ar -1.412115e+00 0.000000e+00 0.000000e+00
1
Step 453000
Ar -1.432993e+00 0.000000e+00 0.000000e+00
1
Step 454000
Ar -1.448764e+00 0.000000e+00 0.000000e+00
1
Step 455000
Ar -1.405763e+00 0.000000e+00 0.000000e+00
1
Step 456000
Ar -1.392853e+00 0.000000e+00 0.000000e+00
1
Step 457000
Ar -1.393873e+00 0.000000e+00 0.000000e+00
1
Step 458000
Ar -1.395049e+00 0.000000e+00 0.000000e+00
1
Step 459000
Ar -1.392581e+00 0.000000e+00 0.000000e+00
1
Step 460000
Ar -1.394596e+00 0.000000e+00 0.000000e+00
1
Step 461000
Ar -1.432572e+00 0.000000e+00 0.000000e+00
1
Step 462000
Ar -1.424369e+00 0.000000e+00 0.000000e+00
1
Step 463000
Ar -1.436037e+00 0.000000e+00 0.000000e+00
1
Step 464000
Ar -1.458253e+00 0.000000e+00 0.000000e+00
1
Step 465000
Ar -1.432721e+00 0.000000e+00 0.000000e+00
1
Step 466000
Ar -1.453803e+00 0.000000e+00 0.000000e+00
1
Step 467000
Ar -1.458965e+00 0.000000e+00 0.000000e+00
1
Step 468000
Ar -1.467879e+00 0.000000e+00 0.000000e+00
1
Step 469000
Ar -1.471529e+00 0.000000e+00 0.000000e+00
1
Step 470000
Ar -1.474707e+00 0.000000e+00 0.000000e+00
1
Step 471000
Ar -1.462972e+00 0.000000e+00 0.000000e+00
1
Step 472000
Ar -1.453494e+00 0.000000e+00 0.000000e+00
1
Step 473000
Ar -1.455730e+00 0.000000e+00 0.000000e+00
1
Step 474000
Ar -1.450845e+00 0.000000e+00 0.000000e+00
1
Step 475000
Ar -1.445003e+00 0.000000e+00 0.000000e+00
1
Step 476000
Ar -1.454429e+00 0.000000e+00 0.000000e+00
1
Step 477000
Ar -1.460681e+00 0.000000e+00 0.000000e+00
1
Step 478000
Ar -1.459976e+00 0.000000e+00 0.000000e+00
1
Step 479000
Ar -1.461843e+00 0.000000e+00 0.000000e+00
1
Step 480000
Ar -1.455724e+00 0.000000e+00 0.000000e+00
1
Step 481000
Ar -1.511112e+00 0.000000e+00 0.000000e+00
1
Step 482000
Ar -1.495564e+00 0.000000e+00 0.000000e+00
1
Step 483000
Ar -1.495711e+00 0.000000e+00 0.000000e+00
1
Step 484000
Ar -1.484712e+00 0.000000e+00 0.000000e+00
1
Step 485000
Ar -1.496819e+00 0.000000e+00 0.000000e+00
1
Step 486000
Ar -1.514520e+00 0.000000e+00 0.000000e+00
1
Step 487000
Ar -1.511049e+00 0.000000e+00 0.000000e+00
1
Step 488000
Ar -1.521434e+00 0.000000e+00 0.000000e+00
1
Step 489000
Ar -1.514071e+00 0.000000e+00 0.000000e+00
1
Step 490000
Ar -1.521949e+00 0.000000e+00 0.000000e+00
1
Step 491000
Ar -1.553653e+00 0.000000e+00 0.000000e+00
1
Step 492000
Ar -1.541026e+00 0.000000e+00 0.000000e+00
1
Step 493000
Ar -1.553419e+00 0.000000e+00 0.000000e+00
1
Step 494000
Ar -1.557049e+00 0.000000e+00 0.000000e+00
1
Step 495000
Ar -1.553723e+00 0.000000e+00 0.000000e+00
1
Step 496000
Ar -1.365816e+00 0.000000e+00 0.000000e+00
1
Step 497000
Ar -1.368471e+00 0.000000e+00 0.000000e+00
1
Step 498000
Ar -1.350149e+00 0.000000e+00 0.000000e+00
1
Step 499000
Ar -1.344031e+00 0.000000e+00 0.000000e+00
1
Step 500000
Ar -1.354226e+00 0.000000e+00 0.000000e+00
1
Step 501000
Ar -1.341151e+00 0.000000e+00 0.000000e+00
1
Step 502000
Ar -1.343809e+00 0.000000e+00 0.000000e+00
1
Step 503000
Ar -1.343943e+00 0.000000e+00 0.000000e+00
1
Step 504000
Ar -1.342648e+00 0.000000e+00 0.000000e+00
1
Step 505000
Ar -1.341738e+00 0.000000e+00 0.000000e+00
1
Step 506000
Ar -1.367300e+00 0.000000e+00 0.000000e+00
1
Step 507000
Ar -1.367639e+00 0.000000e+00 0.000000e+00
1
Step 508000
Ar -1.371893e+00 0.000000e+00 0.000000e+00
1
Step 509000
Ar -1.373391e+00 0.000000e+00 0.000000e+00
1
Step 510000
Ar -1.372776e+00 0.000000e+00 0.000000e+00
1
Step 511000
Ar -1.319832e+00 0.000000e+00 0.000000e+00
1
Step 512000
Ar -9.398055e-01 0.000000e+00 0.000000e+00
1
Step 513000
Ar -9.486641e-01 0.000000e+00 0.000000e+00
1
Step 514000
Ar -9.461793e-01 0.000000e+00 0.000000e+00
1
Step 515000
Ar -9.405874e-01 0.000000e+00 0.000000e+00
1
Step 516000
Ar -9.581062e-01 0.000000e+00 0.000000e+00
1
Step 517000
Ar -9.532388e-01 0.000000e+00 0.000000e+00
1
Step 518000
Ar -9.532969e-01 0.000000e+00 0.000000e+00
1
Step 519000
Ar -9.522614e-01 0.000000e+00 0.000000e+00
1
Step 520000
Ar -9.542429e-01 0.000000e+00 0.000000e+00
1
Step 521000
Ar -1.053382e+00 0.000000e+00 0.000000e+00
1
Step 522000
Ar -1.072815e+00 0.000000e+00 0.000000e+00
1
Step 523000
Ar -9.989089e-01 0.000000e+00 0.000000e+00
1
Step 524000
Ar -1.024272e+00 0.000000e+00 0.000000e+00
1
Step 525000
Ar -1.002657e+00 0.000000e+00 0.000000e+00
1
Step 526000
Ar -1.047900e+00 0.000000e+00 0.000000e+00
1
Step 527000
Ar -1.037465e+00 0.000000e+00 0.000000e+00
1
Step 528000
Ar -1.056327e+00 0.000000e+00 0.000000e+00
1
Step 529000
Ar -1.081621e+00 0.000000e+00 0.000000e+00
1
Step 530000
Ar -1.016125e+00 0.000000e+00 0.000000e+00
1
Step 531000
Ar -1.032027e+00 0.000000e+00 0.000000e+00
1
Step 532000
Ar -1.064094e+00 0.000000e+00 0.000000e+00
1
Step 533000
Ar -1.057205e+00 0.000000e+00 0.000000e+00
1
Step 534000
Ar -1.082753e+00 0.000000e+00 0.000000e+00
1
Step 535000
Ar -1.042581e+00 0.000000e+00 0.000000e+00
1
Step 536000
Ar -1.057604e+00 0.000000e+00 0.000000e+00
1
Step 537000
Ar -1.069398e+00 0.000000e+00 0.000000e+00
1
Step 538000
Ar -1.068497e+00 0.000000e+00 0.000000e+00
1
Step 539000
Ar -1.073595e+00 0.000000e+00 0.000000e+00
1
Step 540000
Ar -1.068851e+00 0.000000e+00 0.000000e+00
1
Step 541000
Ar -1.082211e+00 0.000000e+00 0.000000e+00
1
Step 542000
Ar -1.085984e+00 0.000000e+00 0.000000e+00
1
Step 543000
Ar -1.086193e+00 0.000000e+00 0.000000e+00
1
Step 544000
Ar -1.086165e+00 0.000000e+00 0.000000e+00
1
Step 545000
Ar -1.083263e+00 0.000000e+00 0.000000e+00
1
Step 546000
Ar -1.030712e+00 0.000000e+00 0.000000e+00
1
Step 547000
Ar -1.027217e+00 0.000000e+00 0.000000e+00
1
Step 548000
Ar -1.028814e+00 0.000000e+00 0.000000e+00
1
Step 549000
Ar -1.030701e+00 0.000000e+00 0.000000e+00
1
Step 550000
Ar -1.030620e+00 0.000000e+00 0.000000e+00
1
Step 551000
Ar -9.081650e-01 0.000000e+00 0.000000e+00
1
Step 552000
Ar -9.079132e-01 0.000000e+00 0.000000e+00
1
Step 553000
Ar -9.102529e-01 0.000000e+00 0.000000e+00
1
Step 554000
Ar -9.088961e-01 0.000000e+00 0.000000e+00
1
Step 555000
Ar -9.053814e-01 0.000000e+00 0.000000e+00
1
Step 556000
Ar -9.322358e-01 0.000000e+00 0.000000e+00
1
Step 557000
Ar -9.822661e-01 0.000000e+00 0.000000e+00
1
Step 558000
Ar -9.831805e-01 0.000000e+00 0.000000e+00
1
Step 559000
Ar -9.831435e-01 0.000000e+00 0.000000e+00
1
Step 560000
Ar -9.885975e-01 0.000000e+00 0.000000e+00
1
Step 561000
Ar -1.116779e+00 0.000000e+00 0.000000e+00
1
Step 562000
Ar -1.131249e+00 0.000000e+00 0.000000e+00
1
Step 563000
Ar -1.128830e+00 0.000000e+00 0.000000e+00
1
Step 564000
Ar -1.126136e+00 0.000000e+00 0.000000e+00
1
Step 565000
Ar -1.118644e+00 0.000000e+00 0.000000e+00
1
Step 566000
Ar -1.110579e+00 0.000000e+00 0.000000e+00
1
Step 567000
Ar -1.111452e+00 0.000000e+00 0.000000e+00
1
Step 568000
Ar -1.424530e+00 0.000000e+00 0.000000e+00
1
Step 569000
Ar -1.422898e+00 0.000000e+00 0.000000e+00
1
Step 570000
Ar -1.421826e+00 0.000000e+00 0.000000e+00
1
Step 571000
Ar -1.367240e+00 0.000000e+00 0.000000e+00
1
Step 572000
Ar -1.363725e+00 0.000000e+00 0.000000e+00
1
Step 573000
Ar -1.366951e+00 0.000000e+00 0.000000e+00
1
Step 574000
Ar 5.172195e-01 0.000000e+00 0.000000e+00
1
Step 575000
Ar 5.172097e-01 0.000000e+00 0.000000e+00
1
Step 576000
Ar 5.455425e-01 0.000000e+00 0.000000e+00
1
Step 577000
Ar 5.523243e-01 0.000000e+00 0.000000e+00
1
Step 578000
Ar 5.472792e-01 0.000000e+00 0.000000e+00
1
Step 579000
Ar 5.522869e-01 0.000000e+00 0.000000e+00
1
Step 580000
Ar 5.514620e-01 0.000000e+00 0.000000e+00
1
Step 581000
Ar 3.136960e-01 0.000000e+00 0.000000e+00
1
Step 582000
Ar 4.399018e-01 0.000000e+00 0.000000e+00
1
Step 583000
Ar 4.583801e-01 0.000000e+00 0.000000e+00
1
Step 584000
Ar 3.747612e-01 0.000000e+00 0.000000e+00
1
Step 585000
Ar 4.441321e-01 0.000000e+00 0.000000e+00
1
Step 586000
Ar 4.059932e-01 0.000000e+00 0.000000e+00
1
Step 587000
Ar 3.202477e-01 0.000000e+00 0.000000e+00
1
Step 588000
Ar 3.738071e-01 0.000000e+00 0.000000e+00
1
Step 589000
Ar 3.615557e-01 0.000000e+00 0.000000e+00
1
Step 590000
Ar 3.163869e-01 0.000000e+00 0.000000e+00
1
Step 591000
Ar 2.901068e-01 0.000000e+00 0.000000e+00
1
Step 592000
Ar 2.818160e-01 0.000000e+00 0.000000e+00
1
Step 593000
Ar 2.633676e-01 0.000000e+00 0.000000e+00
1
Step 594000
Ar 2.703785e-01 0.000000e+00 0.000000e+00
1
Step 595000
Ar 2.907305e-01 0.000000e+00 0.000000e+00
1
Step 596000
Ar 1.211523e-01 0.000000e+00 0.000000e+00
1
Step 597000
Ar 1.494864e-01 0.000000e+00 0.000000e+00
1
Step 598000
Ar -2.067949e-01 0.000000e+00 0.000000e+00
1
Step 599000
Ar -8.673541e-02 0.000000e+00 0.000000e+00
1
Step 600000
Ar -2.875539e-01 0.000000e+00 0.000000e+00
1
Step 601000
Ar -2.455925e-01 0.000000e+00 0.000000e+00
1
Step 602000
Ar 1.270917e-01 0.000000e+00 0.000000e+00
1
Step 603000
Ar -1.572947e-01 0.000000e+00 0.000000e+00
1
Step 604000
Ar 1.863714e-01 0.000000e+00 0.000000e+00
1
Step 605000
Ar -2.254646e-01 0.000000e+00 0.000000e+00
1
Step 606000
Ar 2.025050e-01 0.000000e+00 0.000000e+00
1
Step 607000
Ar -2.050758e-01 0.000000e+00 0.000000e+00
1
Step 608000
Ar -1.340753e-01 0.000000e+00 0.000000e+00
1
Step 609000
Ar 6.248788e-02 0.000000e+00 0.000000e+00
1
Step 610000
Ar 1.142437e-01 0.000000e+00 0.000000e+00
1
Step 611000
Ar 2.067154e-01 0.000000e+00 0.000000e+00
1
Step 612000
Ar 1.771663e-01 0.000000e+00 0.000000e+00
1
Step 613000
Ar 2.043062e-01 0.000000e+00 0.000000e+00
1
Step 614000
Ar 2.217982e-01 0.000000e+00 0.000000e+00
1
Step 615000
Ar 2.290137e-01 0.000000e+00 0.000000e+00
1
Step 616000
Ar 1.880859e-01 0.000000e+00 0.000000e+00
1
Step 617000
Ar 1.884441e-01 0.000000e+00 0.000000e+00
1
Step 618000
Ar 1.654457e-01 0.000000e+00 0.000000e+00
1
Step 619000
Ar 1.807746e-01 0.000000e+00 0.000000e+00
1
Step 620000
Ar 1.414258e-01 0.000000e+00 0.000000e+00
1
Step 621000
Ar 1.705619e-01 0.000000e+00 0.000000e+00
1
Step 622000
Ar 1.978056e-01 0.000000e+00 0.000000e+00
1
Step 623000
Ar 2.055954e-01 0.000000e+00 0.000000e+00
1
Step 624000
Ar 1.945783e-01 0.000000e+00 0.000000e+00
1
Step 625000
Ar 1.584568e-01 0.000000e+00 0.000000e+00
1
Step 626000
Ar 1.963463e-01 0.000000e+00 0.000000e+00
1
Step 627000
Ar 1.854415e-01 0.000000e+00 0.000000e+00
1
Step 628000
Ar 1.763782e-01 0.000000e+00 0.000000e+00
1
Step 629000
Ar 1.808816e-01 0.000000e+00 0.000000e+00
1
Step 630000
Ar 1.872012e-01 0.000000e+00 0.000000e+00
1
Step 631000
Ar 1.725880e-01 0.000000e+00 0.000000e+00
1
Step 632000
Ar 1.701967e-01 0.000000e+00 0.000000e+00
1
Step 633000
Ar 1.699632e-01 0.000000e+00 0.000000e+00
1
Step 634000
Ar 1.725009e-01 0.000000e+00 0.000000e+00
1
Step 635000
Ar 1.746363e-01 0.000000e+00 0.000000e+00
1
Step 636000
Ar 1.063250e-01 0.000000e+00 0.000000e+00
1
Step 637000
Ar -1.366615e-01 0.000000e+00 0.000000e+00
1
Step 638000
Ar 6.443440e-02 0.000000e+00 0.000000e+00
1
Step 639000
Ar -1.929671e-01 0.000000e+00 0.000000e+00
1
Step 640000
Ar -6.756271e-02 0.000000e+00 0.000000e+00
1
Step 641000
Ar -2.701687e-01 0.000000e+00 0.000000e+00
1
Step 642000
Ar -2.725746e-01 0.000000e+00 0.000000e+00
1
Step 643000
Ar -2.782213e-01 0.000000e+00 0.000000e+00
1
Step 644000
Ar -2.469388e-01 0.000000e+00 0.000000e+00
1
Step 645000
Ar -2.487329e-01 0.000000e+00 0.000000e+00
1
Step 646000
Ar -3.139272e-01 0.000000e+00 0.000000e+00
1
Step 647000
Ar -3.116643e-01 0.000000e+00 0.000000e+00
1
Step 648000
Ar -3.036451e-01 0.000000e+00 0.000000e+00
1
Step 649000
Ar -3.057738e-01 0.000000e+00 0.000000e+00
1
Step 650000