1
Step 120000
Ar 9.721495e-01 0.000000e+00 0.000000e+00
1
Step 121000
Ar 1.012522e+00 0.000000e+00 0.000000e+00
1
Step 122000
Ar 9.814860e-01 0.000000e+00 0.000000e+00
1
Step 123000
Ar 9.910090e-01 0.000000e+00 0.000000e+00
1
Step 124000
Ar 1.004142e+00 0.000000e+00 0.000000e+00
1
Step 125000
Ar 1.018330e+00 0.000000e+00 0.000000e+00
1
Step 126000
Ar 9.842331e-01 0.000000e+00 0.000000e+00
1
Step 127000
Ar 9.833345e-01 0.000000e+00 0.000000e+00
1
Step 128000
Ar 9.999274e-01 0.000000e+00 0.000000e+00
1
Step 129000
Ar 1.001570e+00 0.000000e+00 0.000000e+00
1
Step 130000
Ar 9.918984e-01 0.000000e+00 0.000000e+00
1
Step 131000
Ar 1.030176e+00 0.000000e+00 0.000000e+00
1
Step 132000
Ar 1.036152e+00 0.000000e+00 0.000000e+00
1
Step 133000
Ar 1.037230e+00 0.000000e+00 0.000000e+00
1
Step 134000
Ar 1.031794e+00 0.000000e+00 0.000000e+00
1
Step 135000
Ar 1.037848e+00 0.000000e+00 0.000000e+00
1
Step 136000
Ar 1.000195e+00 0.000000e+00 0.000000e+00
1
Step 137000
Ar 1.007275e+00 0.000000e+00 0.000000e+00
1
Step 138000
Ar 1.006398e+00 0.000000e+00 0.000000e+00
1
Step 139000
Ar 1.003888e+00 0.000000e+00 0.000000e+00
1
Step 140000
Ar 1.007669e+00 0.000000e+00 0.000000e+00
1
Step 141000
Ar 9.737167e-01 0.000000e+00 0.000000e+00
1
Step 142000
Ar 9.687580e-01 0.000000e+00 0.000000e+00
1
Step 143000
Ar 9.774555e-01 0.000000e+00 0.000000e+00
1
Step 144000
Ar 9.754002e-01 0.000000e+00 0.000000e+00
1
Step 145000
Ar 9.811122e-01 0.000000e+00 0.000000e+00
1
Step 146000
Ar 9.660052e-01 0.000000e+00 0.000000e+00
1
Step 147000
Ar 9.661862e-01 0.000000e+00 0.000000e+00
1
Step 148000
Ar 9.660926e-01 0.000000e+00 0.000000e+00
1
Step 149000
Ar 9.666316e-01 0.000000e+00 0.000000e+00
1
Step 150000
Ar 9.544558e-01 0.000000e+00 0.000000e+00
1
Step 151000
Ar 9.681847e-01 0.000000e+00 0.000000e+00
1
Step 152000
Ar 9.651001e-01 0.000000e+00 0.000000e+00
1
Step 153000
Ar 9.698451e-01 0.000000e+00 0.000000e+00
1
Step 154000
Ar 9.691172e-01 0.000000e+00 0.000000e+00
1
Step 155000
Ar 9.698142e-01 0.000000e+00 0.000000e+00
1
Step 156000
Ar 8.551383e-01 0.000000e+00 0.000000e+00
1
Step 157000
Ar 1.001281e+00 0.000000e+00 0.000000e+00
1
Step 158000
Ar 1.001882e+00 0.000000e+00 0.000000e+00
1
Step 159000
Ar 1.050866e+00 0.000000e+00 0.000000e+00
1
Step 160000
Ar 1.047709e+00 0.000000e+00 0.000000e+00
1
Step 161000
Ar 1.086653e+00 0.000000e+00 0.000000e+00
1
Step 162000
Ar 9.395649e-01 0.000000e+00 0.000000e+00
1
Step 163000
Ar 9.443469e-01 0.000000e+00 0.000000e+00
1
Step 164000
Ar 9.439722e-01 0.000000e+00 0.000000e+00
1
Step 165000
Ar 9.421097e-01 0.000000e+00 0.000000e+00
1
Step 166000
Ar 9.236726e-01 0.000000e+00 0.000000e+00
1
Step 167000
Ar 9.328888e-01 0.000000e+00 0.000000e+00
1
Step 168000
Ar 9.372180e-01 0.000000e+00 0.000000e+00
1
Step 169000
Ar 9.305922e-01 0.000000e+00 0.000000e+00
1
Step 170000
Ar 9.330412e-01 0.000000e+00 0.000000e+00
1
Step 171000
Ar 9.199962e-01 0.000000e+00 0.000000e+00
1
Step 172000
Ar 9.229678e-01 0.000000e+00 0.000000e+00
1
Step 173000
Ar 9.223152e-01 0.000000e+00 0.000000e+00
1
Step 174000
Ar 9.154979e-01 0.000000e+00 0.000000e+00
1
Step 175000
Ar 9.201113e-01 0.000000e+00 0.000000e+00
1
Step 176000
Ar 1.028357e+00 0.000000e+00 0.000000e+00
1
Step 177000
Ar 1.101499e+00 0.000000e+00 0.000000e+00
1
Step 178000
Ar 1.028827e+00 0.000000e+00 0.000000e+00
1
Step 179000
Ar 9.525278e-01 0.000000e+00 0.000000e+00
1
Step 180000
Ar 1.006613e+00 0.000000e+00 0.000000e+00
1
Step 181000
Ar 1.063628e+00 0.000000e+00 0.000000e+00
1
Step 182000
Ar 1.062807e+00 0.000000e+00 0.000000e+00
1
Step 183000
Ar 1.059104e+00 0.000000e+00 0.000000e+00
1
Step 184000
Ar 1.056109e+00 0.000000e+00 0.000000e+00
1
Step 185000
Ar 1.062232e+00 0.000000e+00 0.000000e+00
1
Step 186000
Ar 9.098520e-01 0.000000e+00 0.000000e+00
1
Step 187000
Ar 9.088853e-01 0.000000e+00 0.000000e+00
1
Step 188000
Ar 9.121039e-01 0.000000e+00 0.000000e+00
1
Step 189000
Ar 9.112763e-01 0.000000e+00 0.000000e+00
1
Step 190000
Ar 9.049834e-01 0.000000e+00 0.000000e+00
1
Step 191000
Ar 9.914342e-01 0.000000e+00 0.000000e+00
1
Step 192000
Ar 8.325302e-01 0.000000e+00 0.000000e+00
1
Step 193000
Ar 1.071615e+00 0.000000e+00 0.000000e+00
1
Step 194000
Ar 1.077702e+00 0.000000e+00 0.000000e+00
1
Step 195000
Ar 1.072018e+00 0.000000e+00 0.000000e+00
1
Step 196000
Ar 9.903025e-01 0.000000e+00 0.000000e+00
1
Step 197000
Ar 9.786927e-01 0.000000e+00 0.000000e+00
1
Step 198000
Ar 8.889005e-01 0.000000e+00 0.000000e+00
1
Step 199000
Ar 8.939987e-01 0.000000e+00 0.000000e+00
1
Step 200000
Ar 8.959318e-01 0.000000e+00 0.000000e+00
1
Step 201000
Ar 1.027251e+00 0.000000e+00 0.000000e+00
1
Step 202000
Ar 1.027210e+00 0.000000e+00 0.000000e+00
1
Step 203000
Ar 9.253487e-01 0.000000e+00 0.000000e+00
1
Step 204000
Ar 1.084168e+00 0.000000e+00 0.000000e+00
1
Step 205000
Ar 1.081749e+00 0.000000e+00 0.000000e+00
1
Step 206000
Ar 1.112245e+00 0.000000e+00 0.000000e+00
1
Step 207000
Ar 8.857289e-01 0.000000e+00 0.000000e+00
1
Step 208000
Ar 8.918240e-01 0.000000e+00 0.000000e+00
1
Step 209000
Ar 8.836620e-01 0.000000e+00 0.000000e+00
1
Step 210000
Ar 8.827640e-01 0.000000e+00 0.000000e+00
1
Step 211000
Ar 1.028828e+00 0.000000e+00 0.000000e+00
1
Step 212000
Ar 1.029023e+00 0.000000e+00 0.000000e+00
1
Step 213000
Ar 1.022168e+00 0.000000e+00 0.000000e+00
1
Step 214000
Ar 9.623280e-01 0.000000e+00 0.000000e+00
1
Step 215000
Ar 1.030634e+00 0.000000e+00 0.000000e+00
1
Step 216000
Ar 8.770131e-01 0.000000e+00 0.000000e+00
1
Step 217000
Ar 9.494846e-01 0.000000e+00 0.000000e+00
1
Step 218000
Ar 8.203474e-01 0.000000e+00 0.000000e+00
1
Step 219000
Ar 1.094184e+00 0.000000e+00 0.000000e+00
1
Step 220000
Ar 1.088667e+00 0.000000e+00 0.000000e+00
1
Step 221000
Ar 1.098283e+00 0.000000e+00 0.000000e+00
1
Step 222000
Ar 1.094007e+00 0.000000e+00 0.000000e+00
1
Step 223000
Ar 1.100340e+00 0.000000e+00 0.000000e+00
1
Step 224000
Ar 9.897888e-01 0.000000e+00 0.000000e+00
1
Step 225000
Ar 1.005707e+00 0.000000e+00 0.000000e+00
1
Step 226000
Ar 1.055707e+00 0.000000e+00 0.000000e+00
1
Step 227000
Ar 9.327760e-01 0.000000e+00 0.000000e+00
1
Step 228000
Ar 1.022887e+00 0.000000e+00 0.000000e+00
1
Step 229000
Ar 8.556094e-01 0.000000e+00 0.000000e+00
1
Step 230000
Ar 1.091895e+00 0.000000e+00 0.000000e+00
1
Step 231000
Ar 1.096600e+00 0.000000e+00 0.000000e+00
1
Step 232000
Ar 1.001835e+00 0.000000e+00 0.000000e+00
1
Step 233000
Ar 9.966246e-01 0.000000e+00 0.000000e+00
1
Step 234000
Ar 1.142471e+00 0.000000e+00 0.000000e+00
1
Step 235000
Ar 1.157720e+00 0.000000e+00 0.000000e+00
1
Step 236000
Ar 1.025145e+00 0.000000e+00 0.000000e+00
1
Step 237000
Ar 1.023643e+00 0.000000e+00 0.000000e+00
1
Step 238000
Ar 1.053682e+00 0.000000e+00 0.000000e+00
1
Step 239000
Ar 1.101760e+00 0.000000e+00 0.000000e+00
1
Step 240000
Ar 1.105815e+00 0.000000e+00 0.000000e+00
1
Step 241000
Ar 1.170397e+00 0.000000e+00 0.000000e+00
1
Step 242000
Ar 1.020627e+00 0.000000e+00 0.000000e+00
1
Step 243000
Ar 1.018384e+00 0.000000e+00 0.000000e+00
1
Step 244000
Ar 9.793348e-01 0.000000e+00 0.000000e+00
1
Step 245000
Ar 1.049649e+00 0.000000e+00 0.000000e+00
1
Step 246000
Ar 9.014780e-01 0.000000e+00 0.000000e+00
1
Step 247000
Ar 1.023380e+00 0.000000e+00 0.000000e+00
1
Step 248000
Ar 1.026222e+00 0.000000e+00 0.000000e+00
1
Step 249000
Ar 1.022840e+00 0.000000e+00 0.000000e+00
1
Step 250000
Ar 1.050748e+00 0.000000e+00 0.000000e+00
1
Step 251000
Ar 9.001141e-01 0.000000e+00 0.000000e+00
1
Step 252000
Ar 1.021777e+00 0.000000e+00 0.000000e+00
1
Step 253000
Ar 8.629622e-01 0.000000e+00 0.000000e+00
1
Step 254000
Ar 1.023874e+00 0.000000e+00 0.000000e+00
1
Step 255000
Ar 8.082994e-01 0.000000e+00 0.000000e+00
1
Step 256000
Ar 8.722864e-01 0.000000e+00 0.000000e+00
1
Step 257000
Ar 8.761813e-01 0.000000e+00 0.000000e+00
1
Step 258000
Ar 8.756600e-01 0.000000e+00 0.000000e+00
1
Step 259000
Ar 8.085730e-01 0.000000e+00 0.000000e+00
1
Step 260000
Ar 8.743712e-01 0.000000e+00 0.000000e+00
1
Step 261000
Ar 7.982488e-01 0.000000e+00 0.000000e+00
1
Step 262000
Ar 9.860693e-01 0.000000e+00 0.000000e+00
1
Step 263000
Ar 1.200019e+00 0.000000e+00 0.000000e+00
1
Step 264000
Ar 1.125187e+00 0.000000e+00 0.000000e+00
1
Step 265000
Ar 7.505834e-01 0.000000e+00 0.000000e+00
1
Step 266000
Ar 1.201039e+00 0.000000e+00 0.000000e+00
1
Step 267000
Ar 1.023896e+00 0.000000e+00 0.000000e+00
1
Step 268000
Ar 8.618313e-01 0.000000e+00 0.000000e+00
1
Step 269000
Ar 8.608871e-01 0.000000e+00 0.000000e+00
1
Step 270000
Ar 8.672212e-01 0.000000e+00 0.000000e+00
1
Step 271000
Ar 8.588206e-01 0.000000e+00 0.000000e+00
1
Step 272000
Ar 8.576731e-01 0.000000e+00 0.000000e+00
1
Step 273000
Ar 8.600048e-01 0.000000e+00 0.000000e+00
1
Step 274000
Ar 8.582201e-01 0.000000e+00 0.000000e+00
1
Step 275000
Ar 8.579561e-01 0.000000e+00 0.000000e+00
1
Step 276000
Ar 1.047219e+00 0.000000e+00 0.000000e+00
1
Step 277000
Ar 8.512348e-01 0.000000e+00 0.000000e+00
1
Step 278000
Ar 8.142838e-01 0.000000e+00 0.000000e+00
1
Step 279000
Ar 1.026543e+00 0.000000e+00 0.000000e+00
1
Step 280000
Ar 1.021659e+00 0.000000e+00 0.000000e+00
1
Step 281000
Ar 1.026212e+00 0.000000e+00 0.000000e+00
1
Step 282000
Ar 1.027464e+00 0.000000e+00 0.000000e+00
1
Step 283000
Ar 1.029635e+00 0.000000e+00 0.000000e+00
1
Step 284000
Ar 1.181723e+00 0.000000e+00 0.000000e+00
1
Step 285000
Ar 1.019706e+00 0.000000e+00 0.000000e+00
1
Step 286000
Ar 1.063270e+00 0.000000e+00 0.000000e+00
1
Step 287000
Ar 1.130608e+00 0.000000e+00 0.000000e+00
1
Step 288000
Ar 9.201010e-01 0.000000e+00 0.000000e+00
1
Step 289000
Ar 1.066715e+00 0.000000e+00 0.000000e+00
1
Step 290000
Ar 1.139751e+00 0.000000e+00 0.000000e+00
1
Step 291000
Ar 7.356613e-01 0.000000e+00 0.000000e+00
1
Step 292000
Ar 8.773859e-01 0.000000e+00 0.000000e+00
1
Step 293000
Ar 8.456009e-01 0.000000e+00 0.000000e+00
1
Step 294000
Ar 9.003543e-01 0.000000e+00 0.000000e+00
1
Step 295000
Ar 1.032353e+00 0.000000e+00 0.000000e+00
1
Step 296000
Ar 9.883981e-01 0.000000e+00 0.000000e+00
1
Step 297000
Ar 9.302376e-01 0.000000e+00 0.000000e+00
1
Step 298000
Ar 8.493071e-01 0.000000e+00 0.000000e+00
1
Step 299000
Ar 1.073218e+00 0.000000e+00 0.000000e+00
1
Step 300000
Ar 1.026846e+00 0.000000e+00 0.000000e+00
1
Step 301000
Ar 1.205777e+00 0.000000e+00 0.000000e+00
1
Step 302000
Ar 1.105408e+00 0.000000e+00 0.000000e+00
1
Step 303000
Ar 9.885112e-01 0.000000e+00 0.000000e+00
1
Step 304000
Ar 9.957377e-01 0.000000e+00 0.000000e+00
1
Step 305000
Ar 9.955043e-01 0.000000e+00 0.000000e+00
1
Step 306000
Ar 1.197788e+00 0.000000e+00 0.000000e+00
1
Step 307000
Ar 9.692634e-01 0.000000e+00 0.000000e+00
1
Step 308000
Ar 9.773029e-01 0.000000e+00 0.000000e+00
1
Step 309000
Ar 9.440204e-01 0.000000e+00 0.000000e+00
1
Step 310000
Ar 9.638284e-01 0.000000e+00 0.000000e+00
1
Step 311000
Ar 9.109991e-01 0.000000e+00 0.000000e+00
1
Step 312000
Ar 9.798635e-01 0.000000e+00 0.000000e+00
1
Step 313000
Ar 9.843095e-01 0.000000e+00 0.000000e+00
1
Step 314000
Ar 9.661444e-01 0.000000e+00 0.000000e+00
1
Step 315000
Ar 9.792206e-01 0.000000e+00 0.000000e+00
1
Step 316000
Ar 9.487010e-01 0.000000e+00 0.000000e+00
1
Step 317000
Ar 1.025281e+00 0.000000e+00 0.000000e+00
1
Step 318000
Ar 1.110821e+00 0.000000e+00 0.000000e+00
1
Step 319000
Ar 9.513988e-01 0.000000e+00 0.000000e+00
1
Step 320000
Ar 9.480125e-01 0.000000e+00 0.000000e+00
1
Step 321000
Ar 1.061769e+00 0.000000e+00 0.000000e+00
1
Step 322000
Ar 1.014009e+00 0.000000e+00 0.000000e+00
1
Step 323000
Ar 1.191546e+00 0.000000e+00 0.000000e+00
1
Step 324000
Ar 1.081613e+00 0.000000e+00 0.000000e+00
1
Step 325000
Ar 8.266520e-01 0.000000e+00 0.000000e+00
1
Step 326000
Ar 1.061872e+00 0.000000e+00 0.000000e+00
1
Step 327000
Ar 1.023193e+00 0.000000e+00 0.000000e+00
1
Step 328000
Ar 1.085650e+00 0.000000e+00 0.000000e+00
1
Step 329000
Ar 9.565683e-01 0.000000e+00 0.000000e+00
1
Step 330000
Ar 9.707782e-01 0.000000e+00 0.000000e+00
1
Step 331000
Ar 6.067975e-01 0.000000e+00 0.000000e+00
1
Step 332000
Ar 8.089665e-01 0.000000e+00 0.000000e+00
1
Step 333000
Ar 1.030654e+00 0.000000e+00 0.000000e+00
1
Step 334000
Ar 9.903029e-01 0.000000e+00 0.000000e+00
1
Step 335000
Ar 1.069333e+00 0.000000e+00 0.000000e+00
1
Step 336000
Ar 9.532811e-01 0.000000e+00 0.000000e+00
1
Step 337000
Ar 9.190512e-01 0.000000e+00 0.000000e+00
1
Step 338000
Ar 8.524437e-01 0.000000e+00 0.000000e+00
1
Step 339000
Ar 8.517199e-01 0.000000e+00 0.000000e+00
1
Step 340000
Ar 8.463747e-01 0.000000e+00 0.000000e+00
1
Step 341000
Ar 9.278720e-01 0.000000e+00 0.000000e+00
1
Step 342000
Ar 1.198130e+00 0.000000e+00 0.000000e+00
1
Step 343000
Ar 9.199569e-01 0.000000e+00 0.000000e+00
1
Step 344000
Ar 9.259253e-01 0.000000e+00 0.000000e+00
1
Step 345000
Ar 1.013774e+00 0.000000e+00 0.000000e+00
1
Step 346000
Ar 1.237047e+00 0.000000e+00 0.000000e+00
1
Step 347000
Ar 1.177200e+00 0.000000e+00 0.000000e+00
1
Step 348000
Ar 9.157036e-01 0.000000e+00 0.000000e+00
1
Step 349000
Ar 7.160749e-01 0.000000e+00 0.000000e+00
1
Step 350000
Ar 9.227566e-01 0.000000e+00 0.000000e+00
1
Step 351000
Ar 9.579672e-01 0.000000e+00 0.000000e+00
1
Step 352000
Ar 9.607839e-01 0.000000e+00 0.000000e+00
1
Step 353000
Ar 1.019432e+00 0.000000e+00 0.000000e+00
1
Step 354000
Ar 1.029202e+00 0.000000e+00 0.000000e+00
1
Step 355000
Ar 9.420907e-01 0.000000e+00 0.000000e+00
1
Step 356000
Ar 8.665953e-01 0.000000e+00 0.000000e+00
1
Step 357000
Ar 9.781610e-01 0.000000e+00 0.000000e+00
1
Step 358000
Ar 7.988679e-01 0.000000e+00 0.000000e+00
1
Step 359000
Ar 6.163021e-01 0.000000e+00 0.000000e+00
1
Step 360000
Ar 1.281903e+00 0.000000e+00 0.000000e+00
1
Step 361000
Ar 9.568411e-01 0.000000e+00 0.000000e+00
1
Step 362000
Ar 8.201853e-01 0.000000e+00 0.000000e+00
1
Step 363000
Ar 1.054052e+00 0.000000e+00 0.000000e+00
1
Step 364000
Ar 6.993824e-01 0.000000e+00 0.000000e+00
1
Step 365000
Ar 1.030032e+00 0.000000e+00 0.000000e+00
1
Step 366000
Ar 7.966149e-01 0.000000e+00 0.000000e+00
1
Step 367000
Ar 8.148745e-01 0.000000e+00 0.000000e+00
1
Step 368000
Ar 1.073421e+00 0.000000e+00 0.000000e+00
1
Step 369000
Ar 1.010114e+00 0.000000e+00 0.000000e+00
1
Step 370000
Ar 9.355958e-01 0.000000e+00 0.000000e+00
1
Step 371000
Ar 1.204244e+00 0.000000e+00 0.000000e+00
1
Step 372000
Ar 1.124800e+00 0.000000e+00 0.000000e+00
1
Step 373000
Ar 9.027905e-01 0.000000e+00 0.000000e+00
1
Step 374000
Ar 1.099625e+00 0.000000e+00 0.000000e+00
1
Step 375000
Ar 1.065064e+00 0.000000e+00 0.000000e+00
1
Step 376000
Ar 9.559340e-01 0.000000e+00 0.000000e+00
1
Step 377000
Ar 7.445531e-01 0.000000e+00 0.000000e+00
1
Step 378000
Ar 1.005669e+00 0.000000e+00 0.000000e+00
1
Step 379000
Ar 1.096976e+00 0.000000e+00 0.000000e+00
1
Step 380000
Ar 1.040318e+00 0.000000e+00 0.000000e+00
1
Step 381000
Ar 1.054742e+00 0.000000e+00 0.000000e+00
1
Step 382000
Ar 9.196903e-01 0.000000e+00 0.000000e+00
1
Step 383000
Ar 7.579375e-01 0.000000e+00 0.000000e+00
1
Step 384000
Ar 1.028738e+00 0.000000e+00 0.000000e+00
1
Step 385000
Ar 8.438474e-01 0.000000e+00 0.000000e+00
1
Step 386000
Ar 6.230733e-01 0.000000e+00 0.000000e+00
1
Step 387000
Ar 1.151533e+00 0.000000e+00 0.000000e+00
1
Step 388000
Ar 1.058305e+00 0.000000e+00 0.000000e+00
1
Step 389000
Ar 8.119920e-01 0.000000e+00 0.000000e+00
1
Step 390000
Ar 8.821486e-01 0.000000e+00 0.000000e+00
1
Step 391000
Ar 1.052169e+00 0.000000e+00 0.000000e+00
1
Step 392000
Ar 9.565332e-01 0.000000e+00 0.000000e+00
1
Step 393000
Ar 1.017293e+00 0.000000e+00 0.000000e+00
1
Step 394000
Ar 1.086523e+00 0.000000e+00 0.000000e+00
1
Step 395000
Ar 9.365546e-01 0.000000e+00 0.000000e+00
1
Step 396000
Ar 1.013850e+00 0.000000e+00 0.000000e+00
1
Step 397000
Ar 9.237671e-01 0.000000e+00 0.000000e+00
1
Step 398000
Ar 1.000569e+00 0.000000e+00 0.000000e+00
1
Step 399000
Ar 6.990031e-01 0.000000e+00 0.000000e+00
1
Step 400000
Ar 1.112463e+00 0.000000e+00 0.000000e+00
1
Step 401000
Ar 1.121728e+00 0.000000e+00 0.000000e+00
1
Step 402000
Ar 1.117122e+00 0.000000e+00 0.000000e+00
1
Step 403000
Ar 1.117878e+00 0.000000e+00 0.000000e+00
1
Step 404000
Ar 1.122052e+00 0.000000e+00 0.000000e+00
1
Step 405000
Ar 1.106339e+00 0.000000e+00 0.000000e+00
1
Step 406000
Ar 9.171857e-01 0.000000e+00 0.000000e+00
1
Step 407000
Ar 8.680703e-01 0.000000e+00 0.000000e+00
1
Step 408000
Ar 1.138493e+00 0.000000e+00 0.000000e+00
1
Step 409000
Ar 1.034681e+00 0.000000e+00 0.000000e+00
1
Step 410000
Ar 9.220008e-01 0.000000e+00 0.000000e+00
1
Step 411000
Ar 1.120631e+00 0.000000e+00 0.000000e+00
1
Step 412000
Ar 1.124805e+00 0.000000e+00 0.000000e+00
1
Step 413000
Ar 1.128654e+00 0.000000e+00 0.000000e+00
1
Step 414000
Ar 1.126233e+00 0.000000e+00 0.000000e+00
1
Step 415000
Ar 1.117450e+00 0.000000e+00 0.000000e+00
1
Step 416000
Ar 1.126822e+00 0.000000e+00 0.000000e+00
1
Step 417000
Ar 1.127257e+00 0.000000e+00 0.000000e+00
1
Step 418000
Ar 1.120738e+00 0.000000e+00 0.000000e+00
1
Step 419000
Ar 1.123527e+00 0.000000e+00 0.000000e+00
1
Step 420000
Ar 1.101617e+00 0.000000e+00 0.000000e+00
1
Step 421000
Ar 9.811556e-01 0.000000e+00 0.000000e+00
1
Step 422000
Ar 9.610446e-01 0.000000e+00 0.000000e+00
1
Step 423000
Ar 9.516776e-01 0.000000e+00 0.000000e+00
1
Step 424000
Ar 1.132340e+00 0.000000e+00 0.000000e+00
1
Step 425000
Ar 1.127540e+00 0.000000e+00 0.000000e+00
1
Step 426000
Ar 1.121986e+00 0.000000e+00 0.000000e+00
1
Step 427000
Ar 1.118498e+00 0.000000e+00 0.000000e+00
1
Step 428000
Ar 1.123723e+00 0.000000e+00 0.000000e+00
1
Step 429000
Ar 1.054491e+00 0.000000e+00 0.000000e+00
1
Step 430000
Ar 5.829381e-01 0.000000e+00 0.000000e+00
1
Step 431000
Ar 9.850252e-01 0.000000e+00 0.000000e+00
1
Step 432000
Ar 9.759008e-01 0.000000e+00 0.000000e+00
1
Step 433000
Ar 7.820367e-01 0.000000e+00 0.000000e+00
1
Step 434000
Ar 1.252247e+00 0.000000e+00 0.000000e+00
1
Step 435000
Ar 7.572196e-01 0.000000e+00 0.000000e+00
1
Step 436000
Ar 1.044042e+00 0.000000e+00 0.000000e+00
1
Step 437000
Ar 9.794098e-01 0.000000e+00 0.000000e+00
1
Step 438000
Ar 9.621338e-01 0.000000e+00 0.000000e+00
1
Step 439000
Ar 9.549272e-01 0.000000e+00 0.000000e+00
1
Step 440000
Ar 9.608385e-01 0.000000e+00 0.000000e+00
1
Step 441000
Ar 9.555054e-01 0.000000e+00 0.000000e+00
1
Step 442000
Ar 9.564658e-01 0.000000e+00 0.000000e+00
1
Step 443000
Ar 9.524210e-01 0.000000e+00 0.000000e+00
1
Step 444000
Ar 9.553573e-01 0.000000e+00 0.000000e+00
1
Step 445000
Ar 9.523713e-01 0.000000e+00 0.000000e+00
1
Step 446000
Ar 9.441545e-01 0.000000e+00 0.000000e+00
1
Step 447000
Ar 1.018577e+00 0.000000e+00 0.000000e+00
1
Step 448000
Ar 9.103415e-01 0.000000e+00 0.000000e+00
1
Step 449000
Ar 7.073223e-01 0.000000e+00 0.000000e+00
1
Step 450000
Ar -9.850365e-01 0.000000e+00 0.000000e+00
1
Step 451000
Ar -9.706697e-01 0.000000e+00 0.000000e+00
1
Step 452000
Ar -9.722513e-01 0.000000e+00 0.000000e+00
1
Step 453000
Ar -9.745145e-01 0.000000e+00 0.000000e+00
1
Step 454000
Ar -9.702422e-01 0.000000e+00 0.000000e+00
1
Step 455000
Ar -9.738403e-01 0.000000e+00 0.000000e+00
1
Step 456000
Ar -9.540665e-01 0.000000e+00 0.000000e+00
1
Step 457000
Ar -9.580968e-01 0.000000e+00 0.000000e+00
1
Step 458000
Ar -9.598739e-01 0.000000e+00 0.000000e+00
1
Step 459000
Ar -9.562573e-01 0.000000e+00 0.000000e+00
1
Step 460000
Ar -9.600352e-01 0.000000e+00 0.000000e+00
1
Step 461000
Ar -9.991822e-01 0.000000e+00 0.000000e+00
1
Step 462000
Ar -9.968856e-01 0.000000e+00 0.000000e+00
1
Step 463000
Ar -9.995621e-01 0.000000e+00 0.000000e+00
1
Step 464000
Ar -9.997271e-01 0.000000e+00 0.000000e+00
1
Step 465000
Ar -1.000564e+00 0.000000e+00 0.000000e+00
1
Step 466000
Ar -1.014160e+00 0.000000e+00 0.000000e+00
1
Step 467000
Ar -1.010368e+00 0.000000e+00 0.000000e+00
1
Step 468000
Ar -1.012335e+00 0.000000e+00 0.000000e+00
1
Step 469000
Ar -1.017201e+00 0.000000e+00 0.000000e+00
1
Step 470000
Ar -1.018738e+00 0.000000e+00 0.000000e+00
1
Step 471000
Ar -1.034189e+00 0.000000e+00 0.000000e+00
1
Step 472000
Ar -1.034913e+00 0.000000e+00 0.000000e+00
1
Step 473000
Ar -1.032567e+00 0.000000e+00 0.000000e+00
1
Step 474000
Ar -1.033450e+00 0.000000e+00 0.000000e+00
1
Step 475000
Ar -1.029000e+00 0.000000e+00 0.000000e+00
1
Step 476000
Ar -1.047283e+00 0.000000e+00 0.000000e+00
1
Step 477000
Ar -1.040136e+00 0.000000e+00 0.000000e+00
1
Step 478000
Ar -1.043715e+00 0.000000e+00 0.000000e+00
1
Step 479000
Ar -1.041691e+00 0.000000e+00 0.000000e+00
1
Step 480000
Ar -1.043653e+00 0.000000e+00 0.000000e+00
1
Step 481000
Ar -9.508457e-01 0.000000e+00 0.000000e+00
1
Step 482000
Ar -9.372456e-01 0.000000e+00 0.000000e+00
1
Step 483000
Ar -9.462889e-01 0.000000e+00 0.000000e+00
1
Step 484000
Ar -9.502106e-01 0.000000e+00 0.000000e+00
1
Step 485000
Ar -9.458278e-01 0.000000e+00 0.000000e+00
1
Step 486000
Ar -9.696739e-01 0.000000e+00 0.000000e+00
1
Step 487000
Ar -1.019735e+00 0.000000e+00 0.000000e+00
1
Step 488000
Ar -9.358078e-01 0.000000e+00 0.000000e+00
1
Step 489000
Ar -9.262629e-01 0.000000e+00 0.000000e+00
1
Step 490000
Ar -9.265536e-01 0.000000e+00 0.000000e+00
1
Step 491000
Ar -9.778509e-01 0.000000e+00 0.000000e+00
1
Step 492000
Ar -9.705899e-01 0.000000e+00 0.000000e+00
1
Step 493000
Ar -9.131774e-01 0.000000e+00 0.000000e+00
1
Step 494000
Ar -9.768984e-01 0.000000e+00 0.000000e+00
1
Step 495000
Ar -1.055355e+00 0.000000e+00 0.000000e+00
1
Step 496000
Ar -9.171262e-01 0.000000e+00 0.000000e+00
1
Step 497000
Ar -9.141668e-01 0.000000e+00 0.000000e+00
1
Step 498000
Ar -9.149036e-01 0.000000e+00 0.000000e+00
1
Step 499000
Ar -9.184744e-01 0.000000e+00 0.000000e+00
1
Step 500000
Ar -9.143464e-01 0.000000e+00 0.000000e+00
1
Step 501000
Ar -9.078838e-01 0.000000e+00 0.000000e+00
1
Step 502000
Ar -1.003467e+00 0.000000e+00 0.000000e+00
1
Step 503000
Ar -1.032192e+00 0.000000e+00 0.000000e+00
1
Step 504000
Ar -9.723901e-01 0.000000e+00 0.000000e+00
1
Step 505000
Ar -1.030873e+00 0.000000e+00 0.000000e+00
1
Step 506000
Ar -8.948900e-01 0.000000e+00 0.000000e+00
1
Step 507000
Ar -9.890669e-01 0.000000e+00 0.000000e+00
1
Step 508000
Ar -1.064165e+00 0.000000e+00 0.000000e+00
1
Step 509000
Ar -1.066711e+00 0.000000e+00 0.000000e+00
1
Step 510000
Ar -1.063318e+00 0.000000e+00 0.000000e+00
1
Step 511000
Ar -1.077897e+00 0.000000e+00 0.000000e+00
1
Step 512000
Ar -1.076681e+00 0.000000e+00 0.000000e+00
1
Step 513000
Ar -1.072137e+00 0.000000e+00 0.000000e+00
1
Step 514000
Ar -1.075418e+00 0.000000e+00 0.000000e+00
1
Step 515000
Ar -1.071570e+00 0.000000e+00 0.000000e+00
1
Step 516000
Ar -1.011109e+00 0.000000e+00 0.000000e+00
1
Step 517000
Ar -1.009400e+00 0.000000e+00 0.000000e+00
1
Step 518000
Ar -9.910222e-01 0.000000e+00 0.000000e+00
1
Step 519000
Ar -1.115982e+00 0.000000e+00 0.000000e+00
1
Step 520000
Ar -9.346492e-01 0.000000e+00 0.000000e+00
1
Step 521000
Ar -9.049520e-01 0.000000e+00 0.000000e+00
1
Step 522000
Ar -9.003151e-01 0.000000e+00 0.000000e+00
1
Step 523000
Ar -9.014788e-01 0.000000e+00 0.000000e+00
1
Step 524000
Ar -9.025628e-01 0.000000e+00 0.000000e+00
1
Step 525000
Ar -9.024708e-01 0.000000e+00 0.000000e+00
1
Step 526000
Ar -1.145760e+00 0.000000e+00 0.000000e+00
1
Step 527000
Ar -9.670240e-01 0.000000e+00 0.000000e+00
1
Step 528000
Ar -1.124526e+00 0.000000e+00 0.000000e+00
1
Step 529000
Ar -1.082376e+00 0.000000e+00 0.000000e+00
1
Step 530000
Ar -1.080067e+00 0.000000e+00 0.000000e+00
1
Step 531000
Ar -9.899870e-01 0.000000e+00 0.000000e+00
1
Step 532000
Ar -1.089421e+00 0.000000e+00 0.000000e+00
1
Step 533000
Ar -1.091025e+00 0.000000e+00 0.000000e+00
1
Step 534000
Ar -1.089670e+00 0.000000e+00 0.000000e+00
1
Step 535000
Ar -1.089308e+00 0.000000e+00 0.000000e+00
1
Step 536000
Ar -1.106106e+00 0.000000e+00 0.000000e+00
1
Step 537000
Ar -1.118650e+00 0.000000e+00 0.000000e+00
1
Step 538000
Ar -1.130540e+00 0.000000e+00 0.000000e+00
1
Step 539000
Ar -8.913014e-01 0.000000e+00 0.000000e+00
1
Step 540000
Ar -1.102848e+00 0.000000e+00 0.000000e+00
1
Step 541000
Ar -9.633400e-01 0.000000e+00 0.000000e+00
1
Step 542000
Ar -1.046889e+00 0.000000e+00 0.000000e+00
1
Step 543000
Ar -9.770619e-01 0.000000e+00 0.000000e+00
1
Step 544000
Ar -1.037292e+00 0.000000e+00 0.000000e+00
1
Step 545000
Ar -8.773976e-01 0.000000e+00 0.000000e+00
1
Step 546000
Ar -9.676870e-01 0.000000e+00 0.000000e+00
1
Step 547000
Ar -8.387177e-01 0.000000e+00 0.000000e+00
1
Step 548000
Ar -9.945474e-01 0.000000e+00 0.000000e+00
1
Step 549000
Ar -9.379873e-01 0.000000e+00 0.000000e+00
1
Step 550000
Ar -1.047068e+00 0.000000e+00 0.000000e+00
1
Step 551000
Ar -8.831792e-01 0.000000e+00 0.000000e+00
1
Step 552000
Ar -9.952779e-01 0.000000e+00 0.000000e+00
1
Step 553000
Ar -9.845401e-01 0.000000e+00 0.000000e+00
1
Step 554000
Ar -1.002185e+00 0.000000e+00 0.000000e+00
1
Step 555000
Ar -1.013752e+00 0.000000e+00 0.000000e+00
1
Step 556000
Ar -8.936244e-01 0.000000e+00 0.000000e+00
1
Step 557000
Ar -8.915660e-01 0.000000e+00 0.000000e+00
1
Step 558000
Ar -8.958380e-01 0.000000e+00 0.000000e+00
1
Step 559000
Ar -8.540862e-01 0.000000e+00 0.000000e+00
1
Step 560000
Ar -1.138717e+00 0.000000e+00 0.000000e+00
1
Step 561000
Ar -1.115464e+00 0.000000e+00 0.000000e+00
1
Step 562000
Ar -9.606051e-01 0.000000e+00 0.000000e+00
1
Step 563000
Ar -9.675332e-01 0.000000e+00 0.000000e+00
1
Step 564000
Ar -9.967498e-01 0.000000e+00 0.000000e+00
1
Step 565000
Ar -9.191100e-01 0.000000e+00 0.000000e+00
1
Step 566000
Ar -9.263279e-01 0.000000e+00 0.000000e+00
1
Step 567000
Ar -9.664740e-01 0.000000e+00 0.000000e+00
1
Step 568000
Ar -9.647864e-01 0.000000e+00 0.000000e+00
1
Step 569000
Ar -8.920916e-01 0.000000e+00 0.000000e+00
1
Step 570000
Ar -1.055600e+00 0.000000e+00 0.000000e+00
1
Step 571000
Ar -9.939736e-01 0.000000e+00 0.000000e+00
1
Step 572000
Ar -1.066931e+00 0.000000e+00 0.000000e+00
1
Step 573000
Ar -1.062564e+00 0.000000e+00 0.000000e+00
1
Step 574000
Ar -1.070257e+00 0.000000e+00 0.000000e+00
1
Step 575000
Ar -1.067317e+00 0.000000e+00 0.000000e+00
1
Step 576000
Ar -1.099271e+00 0.000000e+00 0.000000e+00
1
Step 577000
Ar -9.954312e-01 0.000000e+00 0.000000e+00
1
Step 578000
Ar -9.925963e-01 0.000000e+00 0.000000e+00
1
Step 579000
Ar -9.859625e-01 0.000000e+00 0.000000e+00
1
Step 580000
Ar -8.922109e-01 0.000000e+00 0.000000e+00
1
Step 581000
Ar -9.652113e-01 0.000000e+00 0.000000e+00
1
Step 582000
Ar -9.887690e-01 0.000000e+00 0.000000e+00
1
Step 583000
Ar -1.003762e+00 0.000000e+00 0.000000e+00
1
Step 584000
Ar -8.548157e-01 0.000000e+00 0.000000e+00
1
Step 585000
Ar -9.903950e-01 0.000000e+00 0.000000e+00
1
Step 586000
Ar -8.951163e-01 0.000000e+00 0.000000e+00
1
Step 587000
Ar -1.006323e+00 0.000000e+00 0.000000e+00
1
Step 588000
Ar -9.111036e-01 0.000000e+00 0.000000e+00
1
Step 589000
Ar -1.081744e+00 0.000000e+00 0.000000e+00
1
Step 590000
Ar -9.520219e-01 0.000000e+00 0.000000e+00
1
Step 591000
Ar -9.358383e-01 0.000000e+00 0.000000e+00
1
Step 592000
Ar -9.032247e-01 0.000000e+00 0.000000e+00
1
Step 593000
Ar -9.664885e-01 0.000000e+00 0.000000e+00
1
Step 594000
Ar -9.742679e-01 0.000000e+00 0.000000e+00
1
Step 595000
Ar -9.684510e-01 0.000000e+00 0.000000e+00
1
Step 596000
Ar -1.092330e+00 0.000000e+00 0.000000e+00
1
Step 597000
Ar -1.079579e+00 0.000000e+00 0.000000e+00
1
Step 598000
Ar -1.077329e+00 0.000000e+00 0.000000e+00
1
Step 599000
Ar -1.087739e+00 0.000000e+00 0.000000e+00
1
Step 600000
Ar -1.078952e+00 0.000000e+00 0.000000e+00
1
Step 601000
Ar -8.689833e-01 0.000000e+00 0.000000e+00
1
Step 602000
Ar -8.658623e-01 0.000000e+00 0.000000e+00
1
Step 603000
Ar -9.691391e-01 0.000000e+00 0.000000e+00
1
Step 604000
Ar -9.993426e-01 0.000000e+00 0.000000e+00
1
Step 605000
Ar -1.009111e+00 0.000000e+00 0.000000e+00
1
Step 606000
Ar -8.877407e-01 0.000000e+00 0.000000e+00
1
Step 607000
Ar -7.783917e-01 0.000000e+00 0.000000e+00
1
Step 608000
Ar -9.394763e-01 0.000000e+00 0.000000e+00
1
Step 609000
Ar -9.643144e-01 0.000000e+00 0.000000e+00
1
Step 610000
Ar -1.027299e+00 0.000000e+00 0.000000e+00
1
Step 611000
Ar -9.980893e-01 0.000000e+00 0.000000e+00
1
Step 612000
Ar -9.960742e-01 0.000000e+00 0.000000e+00
1
Step 613000
Ar -1.000724e+00 0.000000e+00 0.000000e+00
1
Step 614000
Ar -9.955069e-01 0.000000e+00 0.000000e+00
1
Step 615000
Ar -8.008006e-01 0.000000e+00 0.000000e+00
1
Step 616000
Ar -9.955275e-01 0.000000e+00 0.000000e+00
1
Step 617000
Ar -1.000156e+00 0.000000e+00 0.000000e+00
1
Step 618000
Ar -9.988358e-01 0.000000e+00 0.000000e+00
1
Step 619000
Ar -9.970667e-01 0.000000e+00 0.000000e+00
1
Step 620000
Ar -9.951910e-01 0.000000e+00 0.000000e+00
1
Step 621000
Ar -1.099978e+00 0.000000e+00 0.000000e+00
1
Step 622000
Ar -1.001668e+00 0.000000e+00 0.000000e+00
1
Step 623000
Ar -1.019179e+00 0.000000e+00 0.000000e+00
1
Step 624000
Ar -1.005692e+00 0.000000e+00 0.000000e+00
1
Step 625000
Ar -9.799683e-01 0.000000e+00 0.000000e+00
1
Step 626000
Ar -9.580537e-01 0.000000e+00 0.000000e+00
1
Step 627000
Ar -9.772885e-01 0.000000e+00 0.000000e+00
1
Step 628000
Ar -1.006688e+00 0.000000e+00 0.000000e+00
1
Step 629000
Ar -9.630147e-01 0.000000e+00 0.000000e+00
1
Step 630000
Ar -9.599250e-01 0.000000e+00 0.000000e+00
1
Step 631000
Ar -1.004949e+00 0.000000e+00 0.000000e+00
1
Step 632000
Ar -1.005217e+00 0.000000e+00 0.000000e+00
1
Step 633000
Ar -1.004037e+00 0.000000e+00 0.000000e+00
1
Step 634000
Ar -9.696418e-01 0.000000e+00 0.000000e+00
1
Step 635000
Ar -1.084150e+00 0.000000e+00 0.000000e+00
1
Step 636000
Ar -9.153894e-01 0.000000e+00 0.000000e+00
1
Step 637000
Ar -8.329671e-01 0.000000e+00 0.000000e+00
1
Step 638000
Ar -9.828579e-01 0.000000e+00 0.000000e+00
1
Step 639000
Ar -9.974456e-01 0.000000e+00 0.000000e+00
1
Step 640000
Ar -1.012712e+00 0.000000e+00 0.000000e+00
1
Step 641000
Ar -9.372099e-01 0.000000e+00 0.000000e+00
1
Step 642000
Ar -8.960783e-01 0.000000e+00 0.000000e+00
1
Step 643000
Ar -9.524333e-01 0.000000e+00 0.000000e+00
1
Step 644000
Ar -8.628144e-01 0.000000e+00 0.000000e+00
1
Step 645000
Ar -8.684208e-01 0.000000e+00 0.000000e+00
1
Step 646000
Ar -8.620767e-01 0.000000e+00 0.000000e+00
1
Step 647000
Ar -8.586913e-01 0.000000e+00 0.000000e+00
1
Step 648000
Ar -8.579496e-01 0.000000e+00 0.000000e+00
1
Step 649000
Ar -9.180968e-01 0.000000e+00 0.000000e+00
1
Step 650000
Ar -1.146864e+00 0.000000e+00 0.000000e+00
1
Step 651000
Ar -8.212945e-01 0.000000e+00 0.000000e+00
1