1
Step 120000
Ar 7.901380e-01 0.000000e+00 0.000000e+00
1
Step 121000
Ar 1.250164e+00 0.000000e+00 0.000000e+00
1
Step 122000
Ar 5.846972e-01 0.000000e+00 0.000000e+00
1
Step 123000
Ar 9.350549e-01 0.000000e+00 0.000000e+00
1
Step 124000
Ar 9.469932e-01 0.000000e+00 0.000000e+00
1
Step 125000
Ar 8.163781e-01 0.000000e+00 0.000000e+00
1
Step 126000
Ar 9.627907e-01 0.000000e+00 0.000000e+00
1
Step 127000
Ar 1.049296e+00 0.000000e+00 0.000000e+00
1
Step 128000
Ar 1.097240e+00 0.000000e+00 0.000000e+00
1
Step 129000
Ar 7.977476e-01 0.000000e+00 0.000000e+00
1
Step 130000
Ar 6.857453e-01 0.000000e+00 0.000000e+00
1
Step 131000
Ar 1.068817e+00 0.000000e+00 0.000000e+00
1
Step 132000
Ar 1.089964e+00 0.000000e+00 0.000000e+00
1
Step 133000
Ar 1.081699e+00 0.000000e+00 0.000000e+00
1
Step 134000
Ar 1.005861e+00 0.000000e+00 0.000000e+00
1
Step 135000
Ar 1.306433e+00 0.000000e+00 0.000000e+00
1
Step 136000
Ar 1.287007e+00 0.000000e+00 0.000000e+00
1
Step 137000
Ar 1.271785e+00 0.000000e+00 0.000000e+00
1
Step 138000
Ar 1.262443e+00 0.000000e+00 0.000000e+00
1
Step 139000
Ar 1.280426e+00 0.000000e+00 0.000000e+00
1
Step 140000
Ar 1.198805e+00 0.000000e+00 0.000000e+00
1
Step 141000
Ar 1.196125e+00 0.000000e+00 0.000000e+00
1
Step 142000
Ar 9.705306e-01 0.000000e+00 0.000000e+00
1
Step 143000
Ar 8.904852e-01 0.000000e+00 0.000000e+00
1
Step 144000
Ar 8.248521e-01 0.000000e+00 0.000000e+00
1
Step 145000
Ar 8.172342e-01 0.000000e+00 0.000000e+00
1
Step 146000
Ar 7.352654e-01 0.000000e+00 0.000000e+00
1
Step 147000
Ar 7.262658e-01 0.000000e+00 0.000000e+00
1
Step 148000
Ar 6.235924e-01 0.000000e+00 0.000000e+00
1
Step 149000
Ar 5.271453e-01 0.000000e+00 0.000000e+00
1
Step 150000
Ar 5.781501e-01 0.000000e+00 0.000000e+00
1
Step 151000
Ar 5.869816e-01 0.000000e+00 0.000000e+00
1
Step 152000
Ar 4.920472e-01 0.000000e+00 0.000000e+00
1
Step 153000
Ar 5.442290e-01 0.000000e+00 0.000000e+00
1
Step 154000
Ar 5.137624e-01 0.000000e+00 0.000000e+00
1
Step 155000
Ar 5.088411e-01 0.000000e+00 0.000000e+00
1
Step 156000
Ar 3.990409e-01 0.000000e+00 0.000000e+00
1
Step 157000
Ar 4.274008e-01 0.000000e+00 0.000000e+00
1
Step 158000
Ar 4.690938e-01 0.000000e+00 0.000000e+00
1
Step 159000
Ar 5.061561e-01 0.000000e+00 0.000000e+00
1
Step 160000
Ar 4.602243e-01 0.000000e+00 0.000000e+00
1
Step 161000
Ar 6.002277e-01 0.000000e+00 0.000000e+00
1
Step 162000
Ar 5.986660e-01 0.000000e+00 0.000000e+00
1
Step 163000
Ar 7.818616e-01 0.000000e+00 0.000000e+00
1
Step 164000
Ar 8.959815e-01 0.000000e+00 0.000000e+00
1
Step 165000
Ar 9.056062e-01 0.000000e+00 0.000000e+00
1
Step 166000
Ar 8.979642e-01 0.000000e+00 0.000000e+00
1
Step 167000
Ar 9.495620e-01 0.000000e+00 0.000000e+00
1
Step 168000
Ar 1.042873e+00 0.000000e+00 0.000000e+00
1
Step 169000
Ar 1.040398e+00 0.000000e+00 0.000000e+00
1
Step 170000
Ar 9.640428e-01 0.000000e+00 0.000000e+00
1
Step 171000
Ar 9.258167e-01 0.000000e+00 0.000000e+00
1
Step 172000
Ar 9.760485e-01 0.000000e+00 0.000000e+00
1
Step 173000
Ar 1.318660e+00 0.000000e+00 0.000000e+00
1
Step 174000
Ar 1.226562e+00 0.000000e+00 0.000000e+00
1
Step 175000
Ar 1.237181e+00 0.000000e+00 0.000000e+00
1
Step 176000
Ar 1.194070e+00 0.000000e+00 0.000000e+00
1
Step 177000
Ar 1.138606e+00 0.000000e+00 0.000000e+00
1
Step 178000
Ar 7.473672e-01 0.000000e+00 0.000000e+00
1
Step 179000
Ar 1.020871e+00 0.000000e+00 0.000000e+00
1
Step 180000
Ar 6.901100e-01 0.000000e+00 0.000000e+00
1
Step 181000
Ar 7.485035e-01 0.000000e+00 0.000000e+00
1
Step 182000
Ar 7.536427e-01 0.000000e+00 0.000000e+00
1
Step 183000
Ar 7.005724e-01 0.000000e+00 0.000000e+00
1
Step 184000
Ar 8.306373e-01 0.000000e+00 0.000000e+00
1
Step 185000
Ar 8.646874e-01 0.000000e+00 0.000000e+00
1
Step 186000
Ar 8.790369e-01 0.000000e+00 0.000000e+00
1
Step 187000
Ar 8.803129e-01 0.000000e+00 0.000000e+00
1
Step 188000
Ar 1.150225e+00 0.000000e+00 0.000000e+00
1
Step 189000
Ar 1.159128e+00 0.000000e+00 0.000000e+00
1
Step 190000
Ar 6.995946e-01 0.000000e+00 0.000000e+00
1
Step 191000
Ar 7.623928e-01 0.000000e+00 0.000000e+00
1
Step 192000
Ar 6.154138e-01 0.000000e+00 0.000000e+00
1
Step 193000
Ar 7.689735e-01 0.000000e+00 0.000000e+00
1
Step 194000
Ar 9.213774e-01 0.000000e+00 0.000000e+00
1
Step 195000
Ar 9.250666e-01 0.000000e+00 0.000000e+00
1
Step 196000
Ar 9.421954e-01 0.000000e+00 0.000000e+00
1
Step 197000
Ar 8.615515e-01 0.000000e+00 0.000000e+00
1
Step 198000
Ar 8.768090e-01 0.000000e+00 0.000000e+00
1
Step 199000
Ar 8.774911e-01 0.000000e+00 0.000000e+00
1
Step 200000
Ar 8.723743e-01 0.000000e+00 0.000000e+00
1
Step 201000
Ar 8.711821e-01 0.000000e+00 0.000000e+00
1
Step 202000
Ar 8.598035e-01 0.000000e+00 0.000000e+00
1
Step 203000
Ar 1.081758e+00 0.000000e+00 0.000000e+00
1
Step 204000
Ar 1.087961e+00 0.000000e+00 0.000000e+00
1
Step 205000
Ar 1.085285e+00 0.000000e+00 0.000000e+00
1
Step 206000
Ar 1.086927e+00 0.000000e+00 0.000000e+00
1
Step 207000
Ar 1.098808e+00 0.000000e+00 0.000000e+00
1
Step 208000
Ar 1.107709e+00 0.000000e+00 0.000000e+00
1
Step 209000
Ar 1.117324e+00 0.000000e+00 0.000000e+00
1
Step 210000
Ar 1.135946e+00 0.000000e+00 0.000000e+00
1
Step 211000
Ar 1.133274e+00 0.000000e+00 0.000000e+00
1
Step 212000
Ar 1.350591e+00 0.000000e+00 0.000000e+00
1
Step 213000
Ar 1.353417e+00 0.000000e+00 0.000000e+00
1
Step 214000
Ar 1.228387e+00 0.000000e+00 0.000000e+00
1
Step 215000
Ar 1.230021e+00 0.000000e+00 0.000000e+00
1
Step 216000
Ar 1.230046e+00 0.000000e+00 0.000000e+00
1
Step 217000
Ar 1.168810e+00 0.000000e+00 0.000000e+00
1
Step 218000
Ar 1.162095e+00 0.000000e+00 0.000000e+00
1
Step 219000
Ar 1.170456e+00 0.000000e+00 0.000000e+00
1
Step 220000
Ar 1.095151e+00 0.000000e+00 0.000000e+00
1
Step 221000
Ar 1.121288e+00 0.000000e+00 0.000000e+00
1
Step 222000
Ar 1.118983e+00 0.000000e+00 0.000000e+00
1
Step 223000
Ar 1.139555e+00 0.000000e+00 0.000000e+00
1
Step 224000
Ar 1.158401e+00 0.000000e+00 0.000000e+00
1
Step 225000
Ar 1.265198e+00 0.000000e+00 0.000000e+00
1
Step 226000
Ar 1.263378e+00 0.000000e+00 0.000000e+00
1
Step 227000
Ar 1.316875e+00 0.000000e+00 0.000000e+00
1
Step 228000
Ar 9.570817e-01 0.000000e+00 0.000000e+00
1
Step 229000
Ar 9.563388e-01 0.000000e+00 0.000000e+00
1
Step 230000
Ar 9.529420e-01 0.000000e+00 0.000000e+00
1
Step 231000
Ar 9.314647e-01 0.000000e+00 0.000000e+00
1
Step 232000
Ar 9.257388e-01 0.000000e+00 0.000000e+00
1
Step 233000
Ar 9.199910e-01 0.000000e+00 0.000000e+00
1
Step 234000
Ar 9.760611e-01 0.000000e+00 0.000000e+00
1
Step 235000
Ar 1.030841e+00 0.000000e+00 0.000000e+00
1
Step 236000
Ar 9.997949e-01 0.000000e+00 0.000000e+00
1
Step 237000
Ar 1.006165e+00 0.000000e+00 0.000000e+00
1
Step 238000
Ar 1.054638e+00 0.000000e+00 0.000000e+00
1
Step 239000
Ar 1.043153e+00 0.000000e+00 0.000000e+00
1
Step 240000
Ar 1.038320e+00 0.000000e+00 0.000000e+00
1
Step 241000
Ar 5.767206e-01 0.000000e+00 0.000000e+00
1
Step 242000
Ar 6.853840e-01 0.000000e+00 0.000000e+00
1
Step 243000
Ar 7.039671e-01 0.000000e+00 0.000000e+00
1
Step 244000
Ar 5.991957e-01 0.000000e+00 0.000000e+00
1
Step 245000
Ar 6.643956e-01 0.000000e+00 0.000000e+00
1
Step 246000
Ar 7.081539e-01 0.000000e+00 0.000000e+00
1
Step 247000
Ar 6.406702e-01 0.000000e+00 0.000000e+00
1
Step 248000
Ar 7.296628e-01 0.000000e+00 0.000000e+00
1
Step 249000
Ar 5.639828e-01 0.000000e+00 0.000000e+00
1
Step 250000
Ar 6.182130e-01 0.000000e+00 0.000000e+00
1
Step 251000
Ar 6.854119e-01 0.000000e+00 0.000000e+00
1
Step 252000
Ar 9.333197e-01 0.000000e+00 0.000000e+00
1
Step 253000
Ar 9.589324e-01 0.000000e+00 0.000000e+00
1
Step 254000
Ar 9.554893e-01 0.000000e+00 0.000000e+00
1
Step 255000
Ar 9.122691e-01 0.000000e+00 0.000000e+00
1
Step 256000
Ar 9.598230e-01 0.000000e+00 0.000000e+00
1
Step 257000
Ar 1.000438e+00 0.000000e+00 0.000000e+00
1
Step 258000
Ar 1.005885e+00 0.000000e+00 0.000000e+00
1
Step 259000
Ar 4.715403e-01 0.000000e+00 0.000000e+00
1
Step 260000
Ar 5.111923e-01 0.000000e+00 0.000000e+00
1
Step 261000
Ar 5.115292e-01 0.000000e+00 0.000000e+00
1
Step 262000
Ar 5.099691e-01 0.000000e+00 0.000000e+00
1
Step 263000
Ar 4.909336e-01 0.000000e+00 0.000000e+00
1
Step 264000
Ar 3.234030e-01 0.000000e+00 0.000000e+00
1
Step 265000
Ar 4.266781e-02 0.000000e+00 0.000000e+00
1
Step 266000
Ar 4.547181e-01 0.000000e+00 0.000000e+00
1
Step 267000
Ar 3.129313e-01 0.000000e+00 0.000000e+00
1
Step 268000
Ar -8.615290e-01 0.000000e+00 0.000000e+00
1
Step 269000
Ar -1.005089e+00 0.000000e+00 0.000000e+00
1
Step 270000
Ar -1.112372e+00 0.000000e+00 0.000000e+00
1
Step 271000
Ar -1.172175e+00 0.000000e+00 0.000000e+00
1
Step 272000
Ar -1.052070e+00 0.000000e+00 0.000000e+00
1
Step 273000
Ar -1.022962e+00 0.000000e+00 0.000000e+00
1
Step 274000
Ar -1.004526e+00 0.000000e+00 0.000000e+00
1
Step 275000
Ar -1.009022e+00 0.000000e+00 0.000000e+00
1
Step 276000
Ar -1.086417e+00 0.000000e+00 0.000000e+00
1
Step 277000
Ar -1.136327e+00 0.000000e+00 0.000000e+00
1
Step 278000
Ar -1.187934e+00 0.000000e+00 0.000000e+00
1
Step 279000
Ar -1.117447e+00 0.000000e+00 0.000000e+00
1
Step 280000
Ar -9.794588e-01 0.000000e+00 0.000000e+00
1
Step 281000
Ar -9.475828e-01 0.000000e+00 0.000000e+00
1
Step 282000
Ar -8.797230e-01 0.000000e+00 0.000000e+00
1
Step 283000
Ar -9.055380e-01 0.000000e+00 0.000000e+00
1
Step 284000
Ar -9.287424e-01 0.000000e+00 0.000000e+00
1
Step 285000
Ar -9.162314e-01 0.000000e+00 0.000000e+00
1
Step 286000
Ar -9.507274e-01 0.000000e+00 0.000000e+00
1
Step 287000
Ar -7.417687e-01 0.000000e+00 0.000000e+00
1
Step 288000
Ar -7.930625e-01 0.000000e+00 0.000000e+00
1
Step 289000
Ar -7.958348e-01 0.000000e+00 0.000000e+00
1
Step 290000
Ar -9.011832e-01 0.000000e+00 0.000000e+00
1
Step 291000
Ar -7.458874e-01 0.000000e+00 0.000000e+00
1
Step 292000
Ar -7.971156e-01 0.000000e+00 0.000000e+00
1
Step 293000
Ar -7.682296e-01 0.000000e+00 0.000000e+00
1
Step 294000
Ar -8.079945e-01 0.000000e+00 0.000000e+00
1
Step 295000
Ar -6.641966e-01 0.000000e+00 0.000000e+00
1
Step 296000
Ar -7.473177e-01 0.000000e+00 0.000000e+00
1
Step 297000
Ar -8.835550e-01 0.000000e+00 0.000000e+00
1
Step 298000
Ar -8.070545e-01 0.000000e+00 0.000000e+00
1
Step 299000
Ar -7.856754e-01 0.000000e+00 0.000000e+00
1
Step 300000
Ar -8.455501e-01 0.000000e+00 0.000000e+00
1
Step 301000
Ar -1.290612e+00 0.000000e+00 0.000000e+00
1
Step 302000
Ar -1.284127e+00 0.000000e+00 0.000000e+00
1
Step 303000
Ar -1.136882e+00 0.000000e+00 0.000000e+00
1
Step 304000
Ar -1.219453e+00 0.000000e+00 0.000000e+00
1
Step 305000
Ar -1.306349e+00 0.000000e+00 0.000000e+00
1
Step 306000
Ar -1.186693e+00 0.000000e+00 0.000000e+00
1
Step 307000
Ar -9.042743e-01 0.000000e+00 0.000000e+00
1
Step 308000
Ar -1.060516e+00 0.000000e+00 0.000000e+00
1
Step 309000
Ar -1.050586e+00 0.000000e+00 0.000000e+00
1
Step 310000
Ar -1.071899e+00 0.000000e+00 0.000000e+00
1
Step 311000
Ar -1.072293e+00 0.000000e+00 0.000000e+00
1
Step 312000
Ar -1.029512e+00 0.000000e+00 0.000000e+00
1
Step 313000
Ar -1.063233e+00 0.000000e+00 0.000000e+00
1
Step 314000
Ar -1.038646e+00 0.000000e+00 0.000000e+00
1
Step 315000
Ar -9.815935e-01 0.000000e+00 0.000000e+00
1
Step 316000
Ar -9.766089e-01 0.000000e+00 0.000000e+00
1
Step 317000
Ar -9.400686e-01 0.000000e+00 0.000000e+00
1
Step 318000
Ar -1.115588e+00 0.000000e+00 0.000000e+00
1
Step 319000
Ar -7.432242e-01 0.000000e+00 0.000000e+00
1
Step 320000
Ar -7.388374e-01 0.000000e+00 0.000000e+00
1
Step 321000
Ar -7.374660e-01 0.000000e+00 0.000000e+00
1
Step 322000
Ar -7.246511e-01 0.000000e+00 0.000000e+00
1
Step 323000
Ar -7.175295e-01 0.000000e+00 0.000000e+00
1
Step 324000
Ar -8.002477e-01 0.000000e+00 0.000000e+00
1
Step 325000
Ar -7.813543e-01 0.000000e+00 0.000000e+00
1
Step 326000
Ar -7.709205e-01 0.000000e+00 0.000000e+00
1
Step 327000
Ar -7.855870e-01 0.000000e+00 0.000000e+00
1
Step 328000
Ar -7.859647e-01 0.000000e+00 0.000000e+00
1
Step 329000
Ar -7.484458e-01 0.000000e+00 0.000000e+00
1
Step 330000
Ar -7.641515e-01 0.000000e+00 0.000000e+00
1
Step 331000
Ar -4.184500e-01 0.000000e+00 0.000000e+00
1
Step 332000
Ar -6.495865e-01 0.000000e+00 0.000000e+00
1
Step 333000
Ar -6.570056e-01 0.000000e+00 0.000000e+00
1
Step 334000
Ar -5.765679e-01 0.000000e+00 0.000000e+00
1
Step 335000
Ar -6.587803e-01 0.000000e+00 0.000000e+00
1
Step 336000
Ar -7.030937e-01 0.000000e+00 0.000000e+00
1
Step 337000
Ar -6.772777e-01 0.000000e+00 0.000000e+00
1
Step 338000
Ar -8.843173e-01 0.000000e+00 0.000000e+00
1
Step 339000
Ar -8.610019e-01 0.000000e+00 0.000000e+00
1
Step 340000
Ar -8.139301e-01 0.000000e+00 0.000000e+00
1
Step 341000
Ar -8.310248e-01 0.000000e+00 0.000000e+00
1
Step 342000
Ar -7.923718e-01 0.000000e+00 0.000000e+00
1
Step 343000
Ar -1.159176e+00 0.000000e+00 0.000000e+00
1
Step 344000
Ar -1.160897e+00 0.000000e+00 0.000000e+00
1
Step 345000
Ar -1.177293e+00 0.000000e+00 0.000000e+00
1
Step 346000
Ar -1.135406e+00 0.000000e+00 0.000000e+00
1
Step 347000
Ar -1.052280e+00 0.000000e+00 0.000000e+00
1
Step 348000
Ar -3.476495e-01 0.000000e+00 0.000000e+00
1
Step 349000
Ar -4.988426e-01 0.000000e+00 0.000000e+00
1
Step 350000
Ar -1.777850e-01 0.000000e+00 0.000000e+00
1
Step 351000
Ar -1.675380e-01 0.000000e+00 0.000000e+00
1
Step 352000
Ar 1.080855e-01 0.000000e+00 0.000000e+00
1
Step 353000
Ar 8.814490e-02 0.000000e+00 0.000000e+00
1
Step 354000
Ar 1.104418e-01 0.000000e+00 0.000000e+00
1
Step 355000
Ar 3.568197e-01 0.000000e+00 0.000000e+00
1
Step 356000
Ar 3.594646e-01 0.000000e+00 0.000000e+00
1
Step 357000
Ar 3.563297e-01 0.000000e+00 0.000000e+00
1
Step 358000
Ar 3.607600e-01 0.000000e+00 0.000000e+00
1
Step 359000
Ar 3.571585e-01 0.000000e+00 0.000000e+00
1
Step 360000
Ar 3.635819e-01 0.000000e+00 0.000000e+00
1
Step 361000
Ar 3.526523e-01 0.000000e+00 0.000000e+00
1
Step 362000
Ar 2.161882e-01 0.000000e+00 0.000000e+00
1
Step 363000
Ar 7.212390e-03 0.000000e+00 0.000000e+00
1
Step 364000
Ar -1.565116e-01 0.000000e+00 0.000000e+00
1
Step 365000
Ar -1.814116e-01 0.000000e+00 0.000000e+00
1
Step 366000
Ar -1.118408e-01 0.000000e+00 0.000000e+00
1
Step 367000
Ar -3.818297e-02 0.000000e+00 0.000000e+00
1
Step 368000
Ar -2.440458e-01 0.000000e+00 0.000000e+00
1
Step 369000
Ar 6.960748e-02 0.000000e+00 0.000000e+00
1
Step 370000
Ar 5.749524e-03 0.000000e+00 0.000000e+00
1
Step 371000
Ar -3.507426e-03 0.000000e+00 0.000000e+00
1
Step 372000
Ar 1.606677e-02 0.000000e+00 0.000000e+00
1
Step 373000
Ar -4.275281e-02 0.000000e+00 0.000000e+00
1
Step 374000
Ar -8.792824e-02 0.000000e+00 0.000000e+00
1
Step 375000
Ar -1.381658e-01 0.000000e+00 0.000000e+00
1
Step 376000
Ar -1.237447e-01 0.000000e+00 0.000000e+00
1
Step 377000
Ar -2.069963e-01 0.000000e+00 0.000000e+00
1
Step 378000
Ar -1.689673e-01 0.000000e+00 0.000000e+00
1
Step 379000
Ar -7.396279e-02 0.000000e+00 0.000000e+00
1
Step 380000
Ar -6.186526e-02 0.000000e+00 0.000000e+00
1
Step 381000
Ar -5.726383e-02 0.000000e+00 0.000000e+00
1
Step 382000
Ar -8.133788e-02 0.000000e+00 0.000000e+00
1
Step 383000
Ar 2.986971e-01 0.000000e+00 0.000000e+00
1
Step 384000
Ar 2.997452e-01 0.000000e+00 0.000000e+00
1
Step 385000
Ar 3.676107e-01 0.000000e+00 0.000000e+00
1
Step 386000
Ar 2.308950e-01 0.000000e+00 0.000000e+00
1
Step 387000
Ar 2.439971e-01 0.000000e+00 0.000000e+00
1
Step 388000
Ar 2.980273e-01 0.000000e+00 0.000000e+00
1
Step 389000
Ar 3.040362e-01 0.000000e+00 0.000000e+00
1
Step 390000
Ar 2.858884e-01 0.000000e+00 0.000000e+00
1
Step 391000
Ar 2.208037e-01 0.000000e+00 0.000000e+00
1
Step 392000
Ar 2.259839e-01 0.000000e+00 0.000000e+00
1
Step 393000
Ar 2.336282e-01 0.000000e+00 0.000000e+00
1
Step 394000
Ar -7.448027e-02 0.000000e+00 0.000000e+00
1
Step 395000
Ar -7.132709e-01 0.000000e+00 0.000000e+00
1
Step 396000
Ar -5.517608e-01 0.000000e+00 0.000000e+00
1
Step 397000
Ar -5.969592e-01 0.000000e+00 0.000000e+00
1
Step 398000
Ar -5.916740e-01 0.000000e+00 0.000000e+00
1
Step 399000
Ar -5.808927e-01 0.000000e+00 0.000000e+00
1
Step 400000
Ar -6.688914e-01 0.000000e+00 0.000000e+00
1
Step 401000
Ar -6.837925e-01 0.000000e+00 0.000000e+00
1
Step 402000
Ar -5.825402e-01 0.000000e+00 0.000000e+00
1
Step 403000
Ar -5.935129e-01 0.000000e+00 0.000000e+00
1
Step 404000
Ar -5.991397e-01 0.000000e+00 0.000000e+00
1
Step 405000
Ar -5.952264e-01 0.000000e+00 0.000000e+00
1
Step 406000
Ar -5.990347e-01 0.000000e+00 0.000000e+00
1
Step 407000
Ar -5.088823e-01 0.000000e+00 0.000000e+00
1
Step 408000
Ar -3.336477e-01 0.000000e+00 0.000000e+00
1
Step 409000
Ar -3.579096e-01 0.000000e+00 0.000000e+00
1
Step 410000
Ar -3.502909e-01 0.000000e+00 0.000000e+00
1
Step 411000
Ar -3.561715e-01 0.000000e+00 0.000000e+00
1
Step 412000
Ar -3.398403e-01 0.000000e+00 0.000000e+00
1
Step 413000
Ar -3.017123e-01 0.000000e+00 0.000000e+00
1
Step 414000
Ar -2.971209e-01 0.000000e+00 0.000000e+00
1
Step 415000
Ar -2.931347e-01 0.000000e+00 0.000000e+00
1
Step 416000
Ar -2.897678e-01 0.000000e+00 0.000000e+00
1
Step 417000
Ar -7.594106e-01 0.000000e+00 0.000000e+00
1
Step 418000
Ar -7.053392e-01 0.000000e+00 0.000000e+00
1
Step 419000
Ar -7.141877e-01 0.000000e+00 0.000000e+00
1
Step 420000
Ar -7.076142e-01 0.000000e+00 0.000000e+00
1
Step 421000
Ar -7.187280e-01 0.000000e+00 0.000000e+00
1
Step 422000
Ar -4.435612e-01 0.000000e+00 0.000000e+00
1
Step 423000
Ar -5.081929e-01 0.000000e+00 0.000000e+00
1
Step 424000
Ar -4.748462e-01 0.000000e+00 0.000000e+00
1
Step 425000
Ar -4.759482e-01 0.000000e+00 0.000000e+00
1
Step 426000
Ar -4.063668e-01 0.000000e+00 0.000000e+00
1
Step 427000
Ar -4.471144e-01 0.000000e+00 0.000000e+00
1
Step 428000
Ar -2.889767e-01 0.000000e+00 0.000000e+00
1
Step 429000
Ar -2.898632e-01 0.000000e+00 0.000000e+00
1
Step 430000
Ar -3.515963e-01 0.000000e+00 0.000000e+00
1
Step 431000
Ar -3.447608e-01 0.000000e+00 0.000000e+00
1
Step 432000
Ar -7.665467e-01 0.000000e+00 0.000000e+00
1
Step 433000
Ar -8.981554e-01 0.000000e+00 0.000000e+00
1
Step 434000
Ar -8.518112e-01 0.000000e+00 0.000000e+00
1
Step 435000
Ar -1.030192e+00 0.000000e+00 0.000000e+00
1
Step 436000
Ar -1.241714e+00 0.000000e+00 0.000000e+00
1
Step 437000
Ar -1.304670e+00 0.000000e+00 0.000000e+00
1
Step 438000
Ar -1.282388e+00 0.000000e+00 0.000000e+00
1
Step 439000
Ar -1.222950e+00 0.000000e+00 0.000000e+00
1
Step 440000
Ar -1.221124e+00 0.000000e+00 0.000000e+00
1
Step 441000
Ar -1.218055e+00 0.000000e+00 0.000000e+00
1
Step 442000
Ar -1.294867e+00 0.000000e+00 0.000000e+00
1
Step 443000
Ar -1.395170e+00 0.000000e+00 0.000000e+00
1
Step 444000
Ar -1.387347e+00 0.000000e+00 0.000000e+00
1
Step 445000
Ar -1.442362e+00 0.000000e+00 0.000000e+00
1
Step 446000
Ar -1.415801e+00 0.000000e+00 0.000000e+00
1
Step 447000
Ar -1.300578e+00 0.000000e+00 0.000000e+00
1
Step 448000
Ar -1.286859e+00 0.000000e+00 0.000000e+00
1
Step 449000
Ar -1.424240e+00 0.000000e+00 0.000000e+00
1
Step 450000
Ar -1.363376e+00 0.000000e+00 0.000000e+00
1
Step 451000
Ar -1.365965e+00 0.000000e+00 0.000000e+00
1
Step 452000
Ar -1.451356e+00 0.000000e+00 0.000000e+00
1
Step 453000
Ar -1.445664e+00 0.000000e+00 0.000000e+00
1
Step 454000
Ar -1.441985e+00 0.000000e+00 0.000000e+00
1
Step 455000
Ar -1.437640e+00 0.000000e+00 0.000000e+00
1
Step 456000
Ar -1.479978e+00 0.000000e+00 0.000000e+00
1
Step 457000
Ar -1.248483e+00 0.000000e+00 0.000000e+00
1
Step 458000
Ar -1.247303e+00 0.000000e+00 0.000000e+00
1
Step 459000
Ar -1.400427e+00 0.000000e+00 0.000000e+00
1
Step 460000
Ar -1.377259e+00 0.000000e+00 0.000000e+00
1
Step 461000
Ar -1.402407e+00 0.000000e+00 0.000000e+00
1
Step 462000
Ar -1.330012e+00 0.000000e+00 0.000000e+00
1
Step 463000
Ar -1.353965e+00 0.000000e+00 0.000000e+00
1
Step 464000
Ar -9.736628e-01 0.000000e+00 0.000000e+00
1
Step 465000
Ar -1.056224e+00 0.000000e+00 0.000000e+00
1
Step 466000
Ar -1.013827e+00 0.000000e+00 0.000000e+00
1
Step 467000
Ar -1.150628e+00 0.000000e+00 0.000000e+00
1
Step 468000
Ar -1.187865e+00 0.000000e+00 0.000000e+00
1
Step 469000
Ar -1.189864e+00 0.000000e+00 0.000000e+00
1
Step 470000
Ar -1.166250e+00 0.000000e+00 0.000000e+00
1
Step 471000
Ar -1.197997e+00 0.000000e+00 0.000000e+00
1
Step 472000
Ar -1.158895e+00 0.000000e+00 0.000000e+00
1
Step 473000
Ar -1.097768e+00 0.000000e+00 0.000000e+00
1
Step 474000
Ar -1.097268e+00 0.000000e+00 0.000000e+00
1
Step 475000
Ar -9.527355e-01 0.000000e+00 0.000000e+00
1
Step 476000
Ar -9.696428e-01 0.000000e+00 0.000000e+00
1
Step 477000
Ar -9.826280e-01 0.000000e+00 0.000000e+00
1
Step 478000
Ar -9.708863e-01 0.000000e+00 0.000000e+00
1
Step 479000
Ar -9.469165e-01 0.000000e+00 0.000000e+00
1
Step 480000
Ar -9.723386e-01 0.000000e+00 0.000000e+00
1
Step 481000
Ar -9.400218e-01 0.000000e+00 0.000000e+00
1
Step 482000
Ar -8.510707e-01 0.000000e+00 0.000000e+00
1
Step 483000
Ar -9.737844e-01 0.000000e+00 0.000000e+00
1
Step 484000
Ar -6.229464e-01 0.000000e+00 0.000000e+00
1
Step 485000
Ar -6.253957e-01 0.000000e+00 0.000000e+00
1
Step 486000
Ar -6.421094e-01 0.000000e+00 0.000000e+00
1
Step 487000
Ar -4.974732e-01 0.000000e+00 0.000000e+00
1
Step 488000
Ar -4.917543e-01 0.000000e+00 0.000000e+00
1
Step 489000
Ar -4.914670e-01 0.000000e+00 0.000000e+00
1
Step 490000
Ar -5.438166e-01 0.000000e+00 0.000000e+00
1
Step 491000
Ar -5.199285e-01 0.000000e+00 0.000000e+00
1
Step 492000
Ar -5.547703e-01 0.000000e+00 0.000000e+00
1
Step 493000
Ar 3.026711e-02 0.000000e+00 0.000000e+00
1
Step 494000
Ar 1.048227e-02 0.000000e+00 0.000000e+00
1
Step 495000
Ar -2.126626e-02 0.000000e+00 0.000000e+00
1
Step 496000
Ar -1.239285e-02 0.000000e+00 0.000000e+00
1
Step 497000
Ar -1.608154e-01 0.000000e+00 0.000000e+00
1
Step 498000
Ar -1.620872e-01 0.000000e+00 0.000000e+00
1
Step 499000
Ar -1.384533e-01 0.000000e+00 0.000000e+00
1
Step 500000
Ar -1.603324e-01 0.000000e+00 0.000000e+00
1
Step 501000
Ar -1.822650e-01 0.000000e+00 0.000000e+00
1
Step 502000
Ar -1.507139e-01 0.000000e+00 0.000000e+00
1
Step 503000
Ar -1.571667e-01 0.000000e+00 0.000000e+00
1
Step 504000
Ar -1.557867e-01 0.000000e+00 0.000000e+00
1
Step 505000
Ar -1.514958e-01 0.000000e+00 0.000000e+00
1
Step 506000
Ar -1.291674e-01 0.000000e+00 0.000000e+00
1
Step 507000
Ar -2.586100e-01 0.000000e+00 0.000000e+00
1
Step 508000
Ar -4.176423e-01 0.000000e+00 0.000000e+00
1
Step 509000
Ar -3.841315e-01 0.000000e+00 0.000000e+00
1
Step 510000
Ar -4.098326e-01 0.000000e+00 0.000000e+00
1
Step 511000
Ar -3.702866e-01 0.000000e+00 0.000000e+00
1
Step 512000
Ar -3.711274e-01 0.000000e+00 0.000000e+00
1
Step 513000
Ar -4.418069e-01 0.000000e+00 0.000000e+00
1
Step 514000
Ar -1.039912e+00 0.000000e+00 0.000000e+00
1
Step 515000
Ar -1.017599e+00 0.000000e+00 0.000000e+00
1
Step 516000
Ar -1.027812e+00 0.000000e+00 0.000000e+00
1
Step 517000
Ar -8.619087e-01 0.000000e+00 0.000000e+00
1
Step 518000
Ar -7.104163e-01 0.000000e+00 0.000000e+00
1
Step 519000
Ar -7.660952e-01 0.000000e+00 0.000000e+00
1
Step 520000
Ar -8.890565e-01 0.000000e+00 0.000000e+00
1
Step 521000
Ar -1.028348e+00 0.000000e+00 0.000000e+00
1
Step 522000
Ar -1.165906e+00 0.000000e+00 0.000000e+00
1
Step 523000
Ar -1.128790e+00 0.000000e+00 0.000000e+00
1
Step 524000
Ar -1.210906e+00 0.000000e+00 0.000000e+00
1
Step 525000
Ar -1.492100e+00 0.000000e+00 0.000000e+00
1
Step 526000
Ar -1.352004e+00 0.000000e+00 0.000000e+00
1
Step 527000
Ar -1.499698e+00 0.000000e+00 0.000000e+00
1
Step 528000
Ar -1.504000e+00 0.000000e+00 0.000000e+00
1
Step 529000
Ar -1.147802e+00 0.000000e+00 0.000000e+00
1
Step 530000
Ar -1.144662e+00 0.000000e+00 0.000000e+00
1
Step 531000
Ar -1.145614e+00 0.000000e+00 0.000000e+00
1
Step 532000
Ar -1.194637e+00 0.000000e+00 0.000000e+00
1
Step 533000
Ar -1.195165e+00 0.000000e+00 0.000000e+00
1
Step 534000
Ar -1.129853e+00 0.000000e+00 0.000000e+00
1
Step 535000
Ar -7.870554e-01 0.000000e+00 0.000000e+00
1
Step 536000
Ar -8.819081e-01 0.000000e+00 0.000000e+00
1
Step 537000
Ar -8.762962e-01 0.000000e+00 0.000000e+00
1
Step 538000
Ar -8.404404e-01 0.000000e+00 0.000000e+00
1
Step 539000
Ar -9.383633e-01 0.000000e+00 0.000000e+00
1
Step 540000
Ar -9.187570e-01 0.000000e+00 0.000000e+00
1
Step 541000
Ar -8.773131e-01 0.000000e+00 0.000000e+00
1
Step 542000
Ar -8.860490e-01 0.000000e+00 0.000000e+00
1
Step 543000
Ar -7.327647e-01 0.000000e+00 0.000000e+00
1
Step 544000
Ar -8.501272e-01 0.000000e+00 0.000000e+00
1
Step 545000
Ar -8.187656e-01 0.000000e+00 0.000000e+00
1
Step 546000
Ar -8.184843e-01 0.000000e+00 0.000000e+00
1
Step 547000
Ar -1.688535e-01 0.000000e+00 0.000000e+00
1
Step 548000
Ar -6.585405e-01 0.000000e+00 0.000000e+00
1
Step 549000
Ar -6.593295e-01 0.000000e+00 0.000000e+00
1
Step 550000
Ar -6.557558e-01 0.000000e+00 0.000000e+00
1
Step 551000
Ar -4.815832e-01 0.000000e+00 0.000000e+00
1
Step 552000
Ar -4.659777e-01 0.000000e+00 0.000000e+00
1
Step 553000
Ar -5.490390e-01 0.000000e+00 0.000000e+00
1
Step 554000
Ar -5.108582e-01 0.000000e+00 0.000000e+00
1
Step 555000
Ar -5.416826e-01 0.000000e+00 0.000000e+00
1
Step 556000
Ar -5.997509e-01 0.000000e+00 0.000000e+00
1
Step 557000
Ar -7.261417e-01 0.000000e+00 0.000000e+00
1
Step 558000
Ar -7.282604e-01 0.000000e+00 0.000000e+00
1
Step 559000
Ar -6.846964e-01 0.000000e+00 0.000000e+00
1
Step 560000
Ar -9.550363e-01 0.000000e+00 0.000000e+00
1
Step 561000
Ar -9.467042e-01 0.000000e+00 0.000000e+00
1
Step 562000
Ar -9.350178e-01 0.000000e+00 0.000000e+00
1
Step 563000
Ar -9.387802e-01 0.000000e+00 0.000000e+00
1
Step 564000
Ar -9.360990e-01 0.000000e+00 0.000000e+00
1
Step 565000
Ar -9.577191e-01 0.000000e+00 0.000000e+00
1
Step 566000
Ar -1.097721e+00 0.000000e+00 0.000000e+00
1
Step 567000
Ar -1.107894e+00 0.000000e+00 0.000000e+00
1
Step 568000
Ar -1.048575e+00 0.000000e+00 0.000000e+00
1
Step 569000
Ar -1.142235e+00 0.000000e+00 0.000000e+00
1
Step 570000
Ar -1.070735e+00 0.000000e+00 0.000000e+00
1
Step 571000
Ar -4.344817e-01 0.000000e+00 0.000000e+00
1
Step 572000
Ar -6.246201e-01 0.000000e+00 0.000000e+00
1
Step 573000
Ar -6.268283e-01 0.000000e+00 0.000000e+00
1
Step 574000
Ar -8.777801e-01 0.000000e+00 0.000000e+00
1
Step 575000
Ar -8.050613e-01 0.000000e+00 0.000000e+00
1
Step 576000
Ar -8.749277e-01 0.000000e+00 0.000000e+00
1
Step 577000
Ar -1.079002e+00 0.000000e+00 0.000000e+00
1
Step 578000
Ar -9.616988e-01 0.000000e+00 0.000000e+00
1
Step 579000
Ar -1.076576e+00 0.000000e+00 0.000000e+00
1
Step 580000
Ar -1.015091e+00 0.000000e+00 0.000000e+00
1
Step 581000
Ar -1.012758e+00 0.000000e+00 0.000000e+00
1
Step 582000
Ar -1.014534e+00 0.000000e+00 0.000000e+00
1
Step 583000
Ar -1.038366e+00 0.000000e+00 0.000000e+00
1
Step 584000
Ar -1.112783e+00 0.000000e+00 0.000000e+00
1
Step 585000
Ar -9.854864e-01 0.000000e+00 0.000000e+00
1
Step 586000
Ar -1.117052e+00 0.000000e+00 0.000000e+00
1
Step 587000
Ar -1.093578e+00 0.000000e+00 0.000000e+00
1
Step 588000
Ar -8.056419e-01 0.000000e+00 0.000000e+00
1
Step 589000
Ar -8.160689e-01 0.000000e+00 0.000000e+00
1
Step 590000
Ar -8.029858e-01 0.000000e+00 0.000000e+00
1
Step 591000
Ar -9.031288e-01 0.000000e+00 0.000000e+00
1
Step 592000
Ar -9.137034e-01 0.000000e+00 0.000000e+00
1
Step 593000
Ar -8.984778e-01 0.000000e+00 0.000000e+00
1
Step 594000
Ar -9.175181e-01 0.000000e+00 0.000000e+00
1
Step 595000
Ar -9.024236e-01 0.000000e+00 0.000000e+00
1
Step 596000
Ar -1.123214e+00 0.000000e+00 0.000000e+00
1
Step 597000
Ar -1.129593e+00 0.000000e+00 0.000000e+00
1
Step 598000
Ar -1.122060e+00 0.000000e+00 0.000000e+00
1
Step 599000
Ar -1.130136e+00 0.000000e+00 0.000000e+00
1
Step 600000
Ar -1.107736e+00 0.000000e+00 0.000000e+00
1
Step 601000
Ar -1.400947e+00 0.000000e+00 0.000000e+00
1
Step 602000
Ar -1.457672e+00 0.000000e+00 0.000000e+00
1
Step 603000
Ar -1.470130e+00 0.000000e+00 0.000000e+00
1
Step 604000
Ar -1.286603e+00 0.000000e+00 0.000000e+00
1
Step 605000
Ar -1.350396e+00 0.000000e+00 0.000000e+00
1
Step 606000
Ar -1.391465e+00 0.000000e+00 0.000000e+00
1
Step 607000
Ar -1.385659e+00 0.000000e+00 0.000000e+00
1
Step 608000
Ar -1.326618e+00 0.000000e+00 0.000000e+00
1
Step 609000
Ar -1.279716e+00 0.000000e+00 0.000000e+00
1
Step 610000
Ar -1.288083e+00 0.000000e+00 0.000000e+00
1
Step 611000
Ar -1.197063e+00 0.000000e+00 0.000000e+00
1
Step 612000
Ar -1.374932e+00 0.000000e+00 0.000000e+00
1
Step 613000
Ar -1.384843e+00 0.000000e+00 0.000000e+00
1
Step 614000
Ar -1.420861e+00 0.000000e+00 0.000000e+00
1
Step 615000
Ar -1.472206e+00 0.000000e+00 0.000000e+00
1
Step 616000
Ar -1.257702e+00 0.000000e+00 0.000000e+00
1
Step 617000
Ar -1.330541e+00 0.000000e+00 0.000000e+00
1
Step 618000
Ar -1.232589e+00 0.000000e+00 0.000000e+00
1
Step 619000
Ar -1.267033e+00 0.000000e+00 0.000000e+00
1
Step 620000
Ar -1.279234e+00 0.000000e+00 0.000000e+00
1
Step 621000
Ar -1.276688e+00 0.000000e+00 0.000000e+00
1
Step 622000
Ar -1.261632e+00 0.000000e+00 0.000000e+00
1
Step 623000
Ar -1.187694e+00 0.000000e+00 0.000000e+00
1
Step 624000
Ar -1.383667e+00 0.000000e+00 0.000000e+00
1
Step 625000
Ar -1.384778e+00 0.000000e+00 0.000000e+00
1
Step 626000
Ar -1.421492e+00 0.000000e+00 0.000000e+00
1
Step 627000
Ar -1.371970e+00 0.000000e+00 0.000000e+00
1
Step 628000
Ar -1.301018e+00 0.000000e+00 0.000000e+00
1
Step 629000
Ar -1.235149e+00 0.000000e+00 0.000000e+00
1
Step 630000
Ar -9.808473e-01 0.000000e+00 0.000000e+00
1
Step 631000
Ar -9.983313e-01 0.000000e+00 0.000000e+00
1
Step 632000
Ar -1.147537e+00 0.000000e+00 0.000000e+00
1
Step 633000
Ar -1.063880e+00 0.000000e+00 0.000000e+00
1
Step 634000
Ar -1.056692e+00 0.000000e+00 0.000000e+00
1
Step 635000
Ar -1.110754e+00 0.000000e+00 0.000000e+00
1
Step 636000
Ar -8.422960e-01 0.000000e+00 0.000000e+00
1
Step 637000
Ar -7.475859e-01 0.000000e+00 0.000000e+00
1
Step 638000
Ar -7.678697e-01 0.000000e+00 0.000000e+00
1
Step 639000
Ar -7.684110e-01 0.000000e+00 0.000000e+00
1
Step 640000
Ar -7.400785e-01 0.000000e+00 0.000000e+00
1
Step 641000
Ar -7.200781e-01 0.000000e+00 0.000000e+00
1
Step 642000
Ar -7.097317e-01 0.000000e+00 0.000000e+00
1
Step 643000
Ar -7.660541e-01 0.000000e+00 0.000000e+00
1
Step 644000
Ar -7.760314e-01 0.000000e+00 0.000000e+00
1
Step 645000
Ar -4.558016e-01 0.000000e+00 0.000000e+00
1
Step 646000
Ar -2.738672e-01 0.000000e+00 0.000000e+00
1
Step 647000
Ar -2.718638e-01 0.000000e+00 0.000000e+00
1
Step 648000
Ar -3.802237e-01 0.000000e+00 0.000000e+00
1
Step 649000