1
Step 120000
Ar 1.316491e-02 0.000000e+00 0.000000e+00
1
Step 121000
Ar 6.774638e-02 0.000000e+00 0.000000e+00
1
Step 122000
Ar 2.639035e-02 0.000000e+00 0.000000e+00
1
Step 123000
Ar 4.903661e-02 0.000000e+00 0.000000e+00
1
Step 124000
Ar -7.838358e-02 0.000000e+00 0.000000e+00
1
Step 125000
Ar 1.643723e-02 0.000000e+00 0.000000e+00
1
Step 126000
Ar 7.835118e-03 0.000000e+00 0.000000e+00
1
Step 127000
Ar -3.154466e-03 0.000000e+00 0.000000e+00
1
Step 128000
Ar -3.971945e-02 0.000000e+00 0.000000e+00
1
Step 129000
Ar -3.921863e-02 0.000000e+00 0.000000e+00
1
Step 130000
Ar 4.940318e-02 0.000000e+00 0.000000e+00
1
Step 131000
Ar -9.228352e-03 0.000000e+00 0.000000e+00
1
Step 132000
Ar 4.948045e-03 0.000000e+00 0.000000e+00
1
Step 133000
Ar 5.032692e-04 0.000000e+00 0.000000e+00
1
Step 134000
Ar 1.330781e-02 0.000000e+00 0.000000e+00
1
Step 135000
Ar 2.860041e-02 0.000000e+00 0.000000e+00
1
Step 136000
Ar -1.802368e-02 0.000000e+00 0.000000e+00
1
Step 137000
Ar -1.885867e-02 0.000000e+00 0.000000e+00
1
Step 138000
Ar -4.456139e-02 0.000000e+00 0.000000e+00
1
Step 139000
Ar 1.542206e-02 0.000000e+00 0.000000e+00
1
Step 140000
Ar 1.576307e-02 0.000000e+00 0.000000e+00
1
Step 141000
Ar 1.619616e-02 0.000000e+00 0.000000e+00
1
Step 142000
Ar 8.710684e-03 0.000000e+00 0.000000e+00
1
Step 143000
Ar -2.800719e-03 0.000000e+00 0.000000e+00
1
Step 144000
Ar -4.014537e-02 0.000000e+00 0.000000e+00
1
Step 145000
Ar 2.551307e-02 0.000000e+00 0.000000e+00
1
Step 146000
Ar -1.501685e-03 0.000000e+00 0.000000e+00
1
Step 147000
Ar 8.051162e-03 0.000000e+00 0.000000e+00
1
Step 148000
Ar -9.570012e-03 0.000000e+00 0.000000e+00
1
Step 149000
Ar -7.631948e-04 0.000000e+00 0.000000e+00
1
Step 150000
Ar 4.449967e-02 0.000000e+00 0.000000e+00
1
Step 151000
Ar -3.365385e-02 0.000000e+00 0.000000e+00
1
Step 152000
Ar 4.470448e-02 0.000000e+00 0.000000e+00
1
Step 153000
Ar 1.083774e-02 0.000000e+00 0.000000e+00
1
Step 154000
Ar -9.522031e-04 0.000000e+00 0.000000e+00
1
Step 155000
Ar 4.636932e-02 0.000000e+00 0.000000e+00
1
Step 156000
Ar 5.892503e-03 0.000000e+00 0.000000e+00
1
Step 157000
Ar -2.026197e-02 0.000000e+00 0.000000e+00
1
Step 158000
Ar -4.984104e-02 0.000000e+00 0.000000e+00
1
Step 159000
Ar 2.352767e-02 0.000000e+00 0.000000e+00
1
Step 160000
Ar -1.369152e-02 0.000000e+00 0.000000e+00
1
Step 161000
Ar 2.364582e-02 0.000000e+00 0.000000e+00
1
Step 162000
Ar 5.610627e-02 0.000000e+00 0.000000e+00
1
Step 163000
Ar -3.975479e-02 0.000000e+00 0.000000e+00
1
Step 164000
Ar -1.450000e-02 0.000000e+00 0.000000e+00
1
Step 165000
Ar 4.793911e-02 0.000000e+00 0.000000e+00
1
Step 166000
Ar 1.543158e-02 0.000000e+00 0.000000e+00
1
Step 167000
Ar 1.191022e-02 0.000000e+00 0.000000e+00
1
Step 168000
Ar 1.756476e-02 0.000000e+00 0.000000e+00
1
Step 169000
Ar -2.137638e-03 0.000000e+00 0.000000e+00
1
Step 170000
Ar -2.130493e-02 0.000000e+00 0.000000e+00
1
Step 171000
Ar 3.386586e-02 0.000000e+00 0.000000e+00
1
Step 172000
Ar -1.457223e-02 0.000000e+00 0.000000e+00
1
Step 173000
Ar -3.826623e-02 0.000000e+00 0.000000e+00
1
Step 174000
Ar -4.711591e-02 0.000000e+00 0.000000e+00
1
Step 175000
Ar 1.754970e-02 0.000000e+00 0.000000e+00
1
Step 176000
Ar -1.942793e-02 0.000000e+00 0.000000e+00
1
Step 177000
Ar 3.357651e-02 0.000000e+00 0.000000e+00
1
Step 178000
Ar -1.197552e-02 0.000000e+00 0.000000e+00
1
Step 179000
Ar -1.769336e-02 0.000000e+00 0.000000e+00
1
Step 180000
Ar -1.908045e-02 0.000000e+00 0.000000e+00
1
Step 181000
Ar -3.705235e-03 0.000000e+00 0.000000e+00
1
Step 182000
Ar 4.192984e-03 0.000000e+00 0.000000e+00
1
Step 183000
Ar 5.993405e-04 0.000000e+00 0.000000e+00
1
Step 184000
Ar -4.581352e-02 0.000000e+00 0.000000e+00
1
Step 185000
Ar -2.260396e-02 0.000000e+00 0.000000e+00
1
Step 186000
Ar 4.399687e-02 0.000000e+00 0.000000e+00
1
Step 187000
Ar -1.205799e-02 0.000000e+00 0.000000e+00
1
Step 188000
Ar -2.420326e-03 0.000000e+00 0.000000e+00
1
Step 189000
Ar 1.243892e-02 0.000000e+00 0.000000e+00
1
Step 190000
Ar -7.421587e-03 0.000000e+00 0.000000e+00
1
Step 191000
Ar -3.965890e-02 0.000000e+00 0.000000e+00
1
Step 192000
Ar -8.185041e-03 0.000000e+00 0.000000e+00
1
Step 193000
Ar -4.958547e-02 0.000000e+00 0.000000e+00
1
Step 194000
Ar 1.991622e-02 0.000000e+00 0.000000e+00
1
Step 195000
Ar 1.283222e-02 0.000000e+00 0.000000e+00
1
Step 196000
Ar -5.254875e-02 0.000000e+00 0.000000e+00
1
Step 197000
Ar -1.299890e-03 0.000000e+00 0.000000e+00
1
Step 198000
Ar -3.049109e-02 0.000000e+00 0.000000e+00
1
Step 199000
Ar 3.925840e-02 0.000000e+00 0.000000e+00
1
Step 200000
Ar -4.762584e-02 0.000000e+00 0.000000e+00
1
Step 201000
Ar -3.950306e-02 0.000000e+00 0.000000e+00
1
Step 202000
Ar -2.025535e-02 0.000000e+00 0.000000e+00
1
Step 203000
Ar -3.254649e-02 0.000000e+00 0.000000e+00
1
Step 204000
Ar 4.499412e-03 0.000000e+00 0.000000e+00
1
Step 205000
Ar -2.467255e-02 0.000000e+00 0.000000e+00
1
Step 206000
Ar -1.246752e-03 0.000000e+00 0.000000e+00
1
Step 207000
Ar 7.618722e-02 0.000000e+00 0.000000e+00
1
Step 208000
Ar 2.480509e-02 0.000000e+00 0.000000e+00
1
Step 209000
Ar -4.000039e-02 0.000000e+00 0.000000e+00
1
Step 210000
Ar 3.000437e-03 0.000000e+00 0.000000e+00
1
Step 211000
Ar -4.123157e-02 0.000000e+00 0.000000e+00
1
Step 212000
Ar 2.939264e-03 0.000000e+00 0.000000e+00
1
Step 213000
Ar -3.856317e-02 0.000000e+00 0.000000e+00
1
Step 214000
Ar 6.399364e-03 0.000000e+00 0.000000e+00
1
Step 215000
Ar 6.013824e-03 0.000000e+00 0.000000e+00
1
Step 216000
Ar -2.652181e-02 0.000000e+00 0.000000e+00
1
Step 217000
Ar -2.782432e-02 0.000000e+00 0.000000e+00
1
Step 218000
Ar 1.283478e-03 0.000000e+00 0.000000e+00
1
Step 219000
Ar 1.971118e-02 0.000000e+00 0.000000e+00
1
Step 220000
Ar -3.185863e-02 0.000000e+00 0.000000e+00
1
Step 221000
Ar 4.567683e-03 0.000000e+00 0.000000e+00
1
Step 222000
Ar 3.649199e-02 0.000000e+00 0.000000e+00
1
Step 223000
Ar -1.944033e-02 0.000000e+00 0.000000e+00
1
Step 224000
Ar -2.877127e-02 0.000000e+00 0.000000e+00
1
Step 225000
Ar 2.887352e-03 0.000000e+00 0.000000e+00
1
Step 226000
Ar -2.529605e-02 0.000000e+00 0.000000e+00
1
Step 227000
Ar 4.762879e-02 0.000000e+00 0.000000e+00
1
Step 228000
Ar -3.269722e-02 0.000000e+00 0.000000e+00
1
Step 229000
Ar -4.304033e-02 0.000000e+00 0.000000e+00
1
Step 230000
Ar 2.909896e-02 0.000000e+00 0.000000e+00
1
Step 231000
Ar 5.024623e-02 0.000000e+00 0.000000e+00
1
Step 232000
Ar -5.050905e-04 0.000000e+00 0.000000e+00
1
Step 233000
Ar -3.984566e-02 0.000000e+00 0.000000e+00
1
Step 234000
Ar 2.294830e-02 0.000000e+00 0.000000e+00
1
Step 235000
Ar 4.858785e-02 0.000000e+00 0.000000e+00
1
Step 236000
Ar 1.266000e-02 0.000000e+00 0.000000e+00
1
Step 237000
Ar -7.145377e-02 0.000000e+00 0.000000e+00
1
Step 238000
Ar -4.113776e-02 0.000000e+00 0.000000e+00
1
Step 239000
Ar -4.957210e-02 0.000000e+00 0.000000e+00
1
Step 240000
Ar -2.165639e-02 0.000000e+00 0.000000e+00
1
Step 241000
Ar -7.671897e-02 0.000000e+00 0.000000e+00
1
Step 242000
Ar -2.823792e-02 0.000000e+00 0.000000e+00
1
Step 243000
Ar 1.893389e-02 0.000000e+00 0.000000e+00
1
Step 244000
Ar -2.423128e-02 0.000000e+00 0.000000e+00
1
Step 245000
Ar -2.224128e-03 0.000000e+00 0.000000e+00
1
Step 246000
Ar -1.338774e-02 0.000000e+00 0.000000e+00
1
Step 247000
Ar -1.425819e-04 0.000000e+00 0.000000e+00
1
Step 248000
Ar -1.375483e-02 0.000000e+00 0.000000e+00
1
Step 249000
Ar -4.434465e-03 0.000000e+00 0.000000e+00
1
Step 250000
Ar 2.230315e-02 0.000000e+00 0.000000e+00
1
Step 251000
Ar -1.819431e-02 0.000000e+00 0.000000e+00
1
Step 252000
Ar -5.509996e-02 0.000000e+00 0.000000e+00
1
Step 253000
Ar 6.109012e-02 0.000000e+00 0.000000e+00
1
Step 254000
Ar -2.441735e-02 0.000000e+00 0.000000e+00
1
Step 255000
Ar 3.993752e-02 0.000000e+00 0.000000e+00
1
Step 256000
Ar 4.288953e-02 0.000000e+00 0.000000e+00
1
Step 257000
Ar 1.281705e-02 0.000000e+00 0.000000e+00
1
Step 258000
Ar 1.363167e-02 0.000000e+00 0.000000e+00
1
Step 259000
Ar -9.509647e-03 0.000000e+00 0.000000e+00
1
Step 260000
Ar -1.943366e-02 0.000000e+00 0.000000e+00
1
Step 261000
Ar 1.149771e-02 0.000000e+00 0.000000e+00
1
Step 262000
Ar 1.965205e-02 0.000000e+00 0.000000e+00
1
Step 263000
Ar 5.738418e-02 0.000000e+00 0.000000e+00
1
Step 264000
Ar -3.901872e-02 0.000000e+00 0.000000e+00
1
Step 265000
Ar 2.297838e-03 0.000000e+00 0.000000e+00
1
Step 266000
Ar -4.278505e-02 0.000000e+00 0.000000e+00
1
Step 267000
Ar -4.239055e-02 0.000000e+00 0.000000e+00
1
Step 268000
Ar -1.553010e-02 0.000000e+00 0.000000e+00
1
Step 269000
Ar -4.796900e-02 0.000000e+00 0.000000e+00
1
Step 270000
Ar 7.406743e-02 0.000000e+00 0.000000e+00
1
Step 271000
Ar -4.980362e-02 0.000000e+00 0.000000e+00
1
Step 272000
Ar 2.774474e-02 0.000000e+00 0.000000e+00
1
Step 273000
Ar -1.425211e-02 0.000000e+00 0.000000e+00
1
Step 274000
Ar 2.972739e-02 0.000000e+00 0.000000e+00
1
Step 275000
Ar -4.898445e-02 0.000000e+00 0.000000e+00
1
Step 276000
Ar 2.926756e-02 0.000000e+00 0.000000e+00
1
Step 277000
Ar -3.783071e-02 0.000000e+00 0.000000e+00
1
Step 278000
Ar -2.901610e-02 0.000000e+00 0.000000e+00
1
Step 279000
Ar 1.108069e-02 0.000000e+00 0.000000e+00
1
Step 280000
Ar -1.671011e-02 0.000000e+00 0.000000e+00
1
Step 281000
Ar 1.913141e-02 0.000000e+00 0.000000e+00
1
Step 282000
Ar -1.732004e-02 0.000000e+00 0.000000e+00
1
Step 283000
Ar 1.791763e-03 0.000000e+00 0.000000e+00
1
Step 284000
Ar 8.535037e-03 0.000000e+00 0.000000e+00
1
Step 285000
Ar 4.167842e-02 0.000000e+00 0.000000e+00
1
Step 286000
Ar 4.176097e-02 0.000000e+00 0.000000e+00
1
Step 287000
Ar -3.123121e-02 0.000000e+00 0.000000e+00
1
Step 288000
Ar -1.093222e-02 0.000000e+00 0.000000e+00
1
Step 289000
Ar 2.566126e-03 0.000000e+00 0.000000e+00
1
Step 290000
Ar -1.447824e-02 0.000000e+00 0.000000e+00
1
Step 291000
Ar 2.002907e-02 0.000000e+00 0.000000e+00
1
Step 292000
Ar 4.297887e-02 0.000000e+00 0.000000e+00
1
Step 293000
Ar 2.495036e-02 0.000000e+00 0.000000e+00
1
Step 294000
Ar -1.979604e-03 0.000000e+00 0.000000e+00
1
Step 295000
Ar -8.740680e-03 0.000000e+00 0.000000e+00
1
Step 296000
Ar -6.695558e-02 0.000000e+00 0.000000e+00
1
Step 297000
Ar 1.915735e-02 0.000000e+00 0.000000e+00
1
Step 298000
Ar 2.193184e-02 0.000000e+00 0.000000e+00
1
Step 299000
Ar 1.014074e-02 0.000000e+00 0.000000e+00
1
Step 300000
Ar -1.981282e-02 0.000000e+00 0.000000e+00
1
Step 301000
Ar 2.831452e-02 0.000000e+00 0.000000e+00
1
Step 302000
Ar -5.832580e-04 0.000000e+00 0.000000e+00
1
Step 303000
Ar 3.870611e-03 0.000000e+00 0.000000e+00
1
Step 304000
Ar 7.508770e-03 0.000000e+00 0.000000e+00
1
Step 305000
Ar -2.051977e-02 0.000000e+00 0.000000e+00
1
Step 306000
Ar 4.877075e-02 0.000000e+00 0.000000e+00
1
Step 307000
Ar -3.424931e-02 0.000000e+00 0.000000e+00
1
Step 308000
Ar 2.726998e-02 0.000000e+00 0.000000e+00
1
Step 309000
Ar -2.060680e-02 0.000000e+00 0.000000e+00
1
Step 310000
Ar -1.483419e-02 0.000000e+00 0.000000e+00
1
Step 311000
Ar -5.239396e-03 0.000000e+00 0.000000e+00
1
Step 312000
Ar 1.000911e-02 0.000000e+00 0.000000e+00
1
Step 313000
Ar -2.292216e-03 0.000000e+00 0.000000e+00
1
Step 314000
Ar 3.649003e-02 0.000000e+00 0.000000e+00
1
Step 315000
Ar 9.630017e-03 0.000000e+00 0.000000e+00
1
Step 316000
Ar -7.917783e-02 0.000000e+00 0.000000e+00
1
Step 317000
Ar 3.688400e-02 0.000000e+00 0.000000e+00
1
Step 318000
Ar 4.665843e-02 0.000000e+00 0.000000e+00
1
Step 319000
Ar 2.783542e-03 0.000000e+00 0.000000e+00
1
Step 320000
Ar -3.504632e-03 0.000000e+00 0.000000e+00
1
Step 321000
Ar -4.578221e-02 0.000000e+00 0.000000e+00
1
Step 322000
Ar 2.226481e-02 0.000000e+00 0.000000e+00
1
Step 323000
Ar -2.002327e-02 0.000000e+00 0.000000e+00
1
Step 324000
Ar -6.550797e-03 0.000000e+00 0.000000e+00
1
Step 325000
Ar -2.205970e-02 0.000000e+00 0.000000e+00
1
Step 326000
Ar 5.617960e-02 0.000000e+00 0.000000e+00
1
Step 327000
Ar 2.751781e-02 0.000000e+00 0.000000e+00
1
Step 328000
Ar 4.907654e-02 0.000000e+00 0.000000e+00
1
Step 329000
Ar -3.881337e-02 0.000000e+00 0.000000e+00
1
Step 330000
Ar 6.511512e-02 0.000000e+00 0.000000e+00
1
Step 331000
Ar 1.086618e-02 0.000000e+00 0.000000e+00
1
Step 332000
Ar 5.885611e-04 0.000000e+00 0.000000e+00
1
Step 333000
Ar -2.238916e-02 0.000000e+00 0.000000e+00
1
Step 334000
Ar 4.575151e-02 0.000000e+00 0.000000e+00
1
Step 335000
Ar 3.416670e-02 0.000000e+00 0.000000e+00
1
Step 336000
Ar -2.258844e-02 0.000000e+00 0.000000e+00
1
Step 337000
Ar -1.763024e-02 0.000000e+00 0.000000e+00
1
Step 338000
Ar 5.121692e-02 0.000000e+00 0.000000e+00
1
Step 339000
Ar 7.287926e-02 0.000000e+00 0.000000e+00
1
Step 340000
Ar 1.409706e-02 0.000000e+00 0.000000e+00
1
Step 341000
Ar 1.464841e-02 0.000000e+00 0.000000e+00
1
Step 342000
Ar -9.715930e-03 0.000000e+00 0.000000e+00
1
Step 343000
Ar -6.004775e-02 0.000000e+00 0.000000e+00
1
Step 344000
Ar -6.401604e-03 0.000000e+00 0.000000e+00
1
Step 345000
Ar 1.135570e-03 0.000000e+00 0.000000e+00
1
Step 346000
Ar 1.505658e-02 0.000000e+00 0.000000e+00
1
Step 347000
Ar 3.556520e-02 0.000000e+00 0.000000e+00
1
Step 348000
Ar 7.893547e-03 0.000000e+00 0.000000e+00
1
Step 349000
Ar -2.677738e-02 0.000000e+00 0.000000e+00
1
Step 350000
Ar -1.197410e-02 0.000000e+00 0.000000e+00
1
Step 351000
Ar -1.484892e-02 0.000000e+00 0.000000e+00
1
Step 352000
Ar 2.276572e-02 0.000000e+00 0.000000e+00
1
Step 353000
Ar -2.937693e-02 0.000000e+00 0.000000e+00
1
Step 354000
Ar 1.310588e-02 0.000000e+00 0.000000e+00
1
Step 355000
Ar 1.823831e-02 0.000000e+00 0.000000e+00
1
Step 356000
Ar 3.015348e-02 0.000000e+00 0.000000e+00
1
Step 357000
Ar -6.449828e-02 0.000000e+00 0.000000e+00
1
Step 358000
Ar 5.348093e-02 0.000000e+00 0.000000e+00
1
Step 359000
Ar -1.869600e-02 0.000000e+00 0.000000e+00
1
Step 360000
Ar 3.081543e-02 0.000000e+00 0.000000e+00
1
Step 361000
Ar -4.381828e-03 0.000000e+00 0.000000e+00
1
Step 362000
Ar -1.485878e-02 0.000000e+00 0.000000e+00
1
Step 363000
Ar -2.436573e-02 0.000000e+00 0.000000e+00
1
Step 364000
Ar -3.016223e-03 0.000000e+00 0.000000e+00
1
Step 365000
Ar -4.842928e-03 0.000000e+00 0.000000e+00
1
Step 366000
Ar 1.205486e-02 0.000000e+00 0.000000e+00
1
Step 367000
Ar -2.563596e-02 0.000000e+00 0.000000e+00
1
Step 368000
Ar 6.175166e-02 0.000000e+00 0.000000e+00
1
Step 369000
Ar 5.657947e-02 0.000000e+00 0.000000e+00
1
Step 370000
Ar -9.650527e-03 0.000000e+00 0.000000e+00
1
Step 371000
Ar -1.290337e-02 0.000000e+00 0.000000e+00
1
Step 372000
Ar 3.963876e-02 0.000000e+00 0.000000e+00
1
Step 373000
Ar 1.480157e-02 0.000000e+00 0.000000e+00
1
Step 374000
Ar 3.270429e-04 0.000000e+00 0.000000e+00
1
Step 375000
Ar -2.897989e-02 0.000000e+00 0.000000e+00
1
Step 376000
Ar 3.622593e-03 0.000000e+00 0.000000e+00
1
Step 377000
Ar -9.912851e-03 0.000000e+00 0.000000e+00
1
Step 378000
Ar 1.655103e-02 0.000000e+00 0.000000e+00
1
Step 379000
Ar 5.864124e-02 0.000000e+00 0.000000e+00
1
Step 380000
Ar 4.690804e-02 0.000000e+00 0.000000e+00
1
Step 381000
Ar 4.267111e-02 0.000000e+00 0.000000e+00
1
Step 382000
Ar -6.654526e-02 0.000000e+00 0.000000e+00
1
Step 383000
Ar -3.534911e-02 0.000000e+00 0.000000e+00
1
Step 384000
Ar 1.176861e-02 0.000000e+00 0.000000e+00
1
Step 385000
Ar -8.314984e-04 0.000000e+00 0.000000e+00
1
Step 386000
Ar 7.778256e-02 0.000000e+00 0.000000e+00
1
Step 387000
Ar -3.728285e-02 0.000000e+00 0.000000e+00
1
Step 388000
Ar -5.443539e-02 0.000000e+00 0.000000e+00
1
Step 389000
Ar 6.728950e-02 0.000000e+00 0.000000e+00
1
Step 390000
Ar 2.000635e-02 0.000000e+00 0.000000e+00
1
Step 391000
Ar -4.390923e-03 0.000000e+00 0.000000e+00
1
Step 392000
Ar 9.098649e-02 0.000000e+00 0.000000e+00
1
Step 393000
Ar 6.399705e-02 0.000000e+00 0.000000e+00
1
Step 394000
Ar 2.117695e-02 0.000000e+00 0.000000e+00
1
Step 395000
Ar -4.141370e-02 0.000000e+00 0.000000e+00
1
Step 396000
Ar 3.054705e-02 0.000000e+00 0.000000e+00
1
Step 397000
Ar -2.918265e-03 0.000000e+00 0.000000e+00
1
Step 398000
Ar 2.806063e-02 0.000000e+00 0.000000e+00
1
Step 399000
Ar 3.419897e-02 0.000000e+00 0.000000e+00
1
Step 400000
Ar -7.425032e-03 0.000000e+00 0.000000e+00
1
Step 401000
Ar -5.419830e-03 0.000000e+00 0.000000e+00
1
Step 402000
Ar -3.067614e-02 0.000000e+00 0.000000e+00
1
Step 403000
Ar 6.101770e-02 0.000000e+00 0.000000e+00
1
Step 404000
Ar -4.841887e-02 0.000000e+00 0.000000e+00
1
Step 405000
Ar -1.154026e-02 0.000000e+00 0.000000e+00
1
Step 406000
Ar 2.305898e-02 0.000000e+00 0.000000e+00
1
Step 407000
Ar 1.812232e-02 0.000000e+00 0.000000e+00
1
Step 408000
Ar 3.453509e-02 0.000000e+00 0.000000e+00
1
Step 409000
Ar -2.431927e-02 0.000000e+00 0.000000e+00
1
Step 410000
Ar 2.825985e-02 0.000000e+00 0.000000e+00
1
Step 411000
Ar -3.911194e-02 0.000000e+00 0.000000e+00
1
Step 412000
Ar 3.618018e-02 0.000000e+00 0.000000e+00
1
Step 413000
Ar 4.060011e-02 0.000000e+00 0.000000e+00
1
Step 414000
Ar -1.741346e-02 0.000000e+00 0.000000e+00
1
Step 415000
Ar 3.749707e-02 0.000000e+00 0.000000e+00
1
Step 416000
Ar 6.062958e-03 0.000000e+00 0.000000e+00
1
Step 417000
Ar 2.668598e-02 0.000000e+00 0.000000e+00
1
Step 418000
Ar 7.638703e-03 0.000000e+00 0.000000e+00
1
Step 419000
Ar -2.528781e-03 0.000000e+00 0.000000e+00
1
Step 420000
Ar -5.472206e-02 0.000000e+00 0.000000e+00
1
Step 421000
Ar -1.717958e-02 0.000000e+00 0.000000e+00
1
Step 422000
Ar -4.041491e-02 0.000000e+00 0.000000e+00
1
Step 423000
Ar -4.735708e-02 0.000000e+00 0.000000e+00
1
Step 424000
Ar 3.222199e-02 0.000000e+00 0.000000e+00
1
Step 425000
Ar 4.721390e-02 0.000000e+00 0.000000e+00
1
Step 426000
Ar -2.411092e-02 0.000000e+00 0.000000e+00
1
Step 427000
Ar -1.274013e-02 0.000000e+00 0.000000e+00
1
Step 428000
Ar -1.803550e-02 0.000000e+00 0.000000e+00
1
Step 429000
Ar 2.283771e-02 0.000000e+00 0.000000e+00
1
Step 430000
Ar -1.055533e-01 0.000000e+00 0.000000e+00
1
Step 431000
Ar -4.127755e-02 0.000000e+00 0.000000e+00
1
Step 432000
Ar 1.781418e-02 0.000000e+00 0.000000e+00
1
Step 433000
Ar -3.211106e-03 0.000000e+00 0.000000e+00
1
Step 434000
Ar -1.291147e-02 0.000000e+00 0.000000e+00
1
Step 435000
Ar -2.346341e-03 0.000000e+00 0.000000e+00
1
Step 436000
Ar 1.841889e-02 0.000000e+00 0.000000e+00
1
Step 437000
Ar 4.420324e-02 0.000000e+00 0.000000e+00
1
Step 438000
Ar -5.534064e-02 0.000000e+00 0.000000e+00
1
Step 439000
Ar -1.648961e-02 0.000000e+00 0.000000e+00
1
Step 440000
Ar 1.493363e-02 0.000000e+00 0.000000e+00
1
Step 441000
Ar -3.758320e-02 0.000000e+00 0.000000e+00
1
Step 442000
Ar -4.900092e-02 0.000000e+00 0.000000e+00
1
Step 443000
Ar -3.861330e-02 0.000000e+00 0.000000e+00
1
Step 444000
Ar -5.329020e-03 0.000000e+00 0.000000e+00
1
Step 445000
Ar -1.712567e-02 0.000000e+00 0.000000e+00
1
Step 446000
Ar -4.398500e-03 0.000000e+00 0.000000e+00
1
Step 447000
Ar -5.700114e-02 0.000000e+00 0.000000e+00
1
Step 448000
Ar -4.085792e-02 0.000000e+00 0.000000e+00
1
Step 449000
Ar 6.334235e-03 0.000000e+00 0.000000e+00
1
Step 450000
Ar 3.281350e-02 0.000000e+00 0.000000e+00
1
Step 451000
Ar 5.780504e-02 0.000000e+00 0.000000e+00
1
Step 452000
Ar -3.077769e-02 0.000000e+00 0.000000e+00
1
Step 453000
Ar -8.876910e-03 0.000000e+00 0.000000e+00
1
Step 454000
Ar -1.018663e-02 0.000000e+00 0.000000e+00
1
Step 455000
Ar 2.175115e-03 0.000000e+00 0.000000e+00
1
Step 456000
Ar -1.805288e-02 0.000000e+00 0.000000e+00
1
Step 457000
Ar 1.764973e-02 0.000000e+00 0.000000e+00
1
Step 458000
Ar -6.370780e-03 0.000000e+00 0.000000e+00
1
Step 459000
Ar -2.594979e-02 0.000000e+00 0.000000e+00
1
Step 460000
Ar 1.787948e-02 0.000000e+00 0.000000e+00
1
Step 461000
Ar -2.449881e-02 0.000000e+00 0.000000e+00
1
Step 462000
Ar -4.347661e-02 0.000000e+00 0.000000e+00
1
Step 463000
Ar -1.567987e-02 0.000000e+00 0.000000e+00
1
Step 464000
Ar -2.814898e-03 0.000000e+00 0.000000e+00
1
Step 465000
Ar 2.153425e-02 0.000000e+00 0.000000e+00
1
Step 466000
Ar 3.317055e-02 0.000000e+00 0.000000e+00
1
Step 467000
Ar -4.543520e-02 0.000000e+00 0.000000e+00
1
Step 468000
Ar -3.173470e-02 0.000000e+00 0.000000e+00
1
Step 469000
Ar -1.343849e-02 0.000000e+00 0.000000e+00
1
Step 470000
Ar -8.531723e-03 0.000000e+00 0.000000e+00
1
Step 471000
Ar -1.020497e-02 0.000000e+00 0.000000e+00
1
Step 472000
Ar 3.339580e-02 0.000000e+00 0.000000e+00
1
Step 473000
Ar 3.859166e-02 0.000000e+00 0.000000e+00
1
Step 474000
Ar 6.609515e-02 0.000000e+00 0.000000e+00
1
Step 475000
Ar 2.304266e-02 0.000000e+00 0.000000e+00
1
Step 476000
Ar 1.536603e-02 0.000000e+00 0.000000e+00
1
Step 477000
Ar -7.468985e-02 0.000000e+00 0.000000e+00
1
Step 478000
Ar 1.560131e-02 0.000000e+00 0.000000e+00
1
Step 479000
Ar -1.940421e-02 0.000000e+00 0.000000e+00
1
Step 480000
Ar 2.721717e-02 0.000000e+00 0.000000e+00
1
Step 481000
Ar 9.380208e-04 0.000000e+00 0.000000e+00
1
Step 482000
Ar 4.879837e-02 0.000000e+00 0.000000e+00
1
Step 483000
Ar -3.093196e-03 0.000000e+00 0.000000e+00
1
Step 484000
Ar 2.603744e-02 0.000000e+00 0.000000e+00
1
Step 485000
Ar -9.121104e-03 0.000000e+00 0.000000e+00
1
Step 486000
Ar 1.046897e-02 0.000000e+00 0.000000e+00
1
Step 487000
Ar 2.896624e-02 0.000000e+00 0.000000e+00
1
Step 488000
Ar -4.147305e-02 0.000000e+00 0.000000e+00
1
Step 489000
Ar -5.094211e-03 0.000000e+00 0.000000e+00
1
Step 490000
Ar 2.503244e-02 0.000000e+00 0.000000e+00
1
Step 491000
Ar 2.372723e-03 0.000000e+00 0.000000e+00
1
Step 492000
Ar 3.324513e-02 0.000000e+00 0.000000e+00
1
Step 493000
Ar -3.727449e-03 0.000000e+00 0.000000e+00
1
Step 494000
Ar 2.970141e-02 0.000000e+00 0.000000e+00
1
Step 495000
Ar 9.173677e-03 0.000000e+00 0.000000e+00
1
Step 496000
Ar -2.332473e-03 0.000000e+00 0.000000e+00
1
Step 497000
Ar -1.815078e-02 0.000000e+00 0.000000e+00
1
Step 498000
Ar 1.811684e-02 0.000000e+00 0.000000e+00
1
Step 499000
Ar 2.051521e-02 0.000000e+00 0.000000e+00
