1
Step 120000
Ar 9.927449e-01 0.000000e+00 0.000000e+00
1
Step 121000
Ar 1.133481e+00 0.000000e+00 0.000000e+00
1
Step 122000
Ar 8.674327e-01 0.000000e+00 0.000000e+00
1
Step 123000
Ar 1.086262e+00 0.000000e+00 0.000000e+00
1
Step 124000
Ar 8.128348e-01 0.000000e+00 0.000000e+00
1
Step 125000
Ar 1.061567e+00 0.000000e+00 0.000000e+00
1
Step 126000
Ar 1.233490e+00 0.000000e+00 0.000000e+00
1
Step 127000
Ar 1.169522e+00 0.000000e+00 0.000000e+00
1
Step 128000
Ar 1.093426e+00 0.000000e+00 0.000000e+00
1
Step 129000
Ar 1.127973e+00 0.000000e+00 0.000000e+00
1
Step 130000
Ar 1.120251e+00 0.000000e+00 0.000000e+00
1
Step 131000
Ar 1.124029e+00 0.000000e+00 0.000000e+00
1
Step 132000
Ar 1.133656e+00 0.000000e+00 0.000000e+00
1
Step 133000
Ar 1.086566e+00 0.000000e+00 0.000000e+00
1
Step 134000
Ar 1.112880e+00 0.000000e+00 0.000000e+00
1
Step 135000
Ar 7.909360e-01 0.000000e+00 0.000000e+00
1
Step 136000
Ar 7.044585e-01 0.000000e+00 0.000000e+00
1
Step 137000
Ar 8.186107e-01 0.000000e+00 0.000000e+00
1
Step 138000
Ar 7.710370e-01 0.000000e+00 0.000000e+00
1
Step 139000
Ar 5.126477e-01 0.000000e+00 0.000000e+00
1
Step 140000
Ar 6.559665e-01 0.000000e+00 0.000000e+00
1
Step 141000
Ar 4.610176e-01 0.000000e+00 0.000000e+00
1
Step 142000
Ar 5.484068e-01 0.000000e+00 0.000000e+00
1
Step 143000
Ar 5.710676e-01 0.000000e+00 0.000000e+00
1
Step 144000
Ar 5.739794e-01 0.000000e+00 0.000000e+00
1
Step 145000
Ar 3.768277e-01 0.000000e+00 0.000000e+00
1
Step 146000
Ar 5.742192e-01 0.000000e+00 0.000000e+00
1
Step 147000
Ar 5.585605e-01 0.000000e+00 0.000000e+00
1
Step 148000
Ar 5.627867e-01 0.000000e+00 0.000000e+00
1
Step 149000
Ar 4.289039e-01 0.000000e+00 0.000000e+00
1
Step 150000
Ar 4.326195e-01 0.000000e+00 0.000000e+00
1
Step 151000
Ar 4.292939e-01 0.000000e+00 0.000000e+00
1
Step 152000
Ar 4.393337e-01 0.000000e+00 0.000000e+00
1
Step 153000
Ar 4.341968e-01 0.000000e+00 0.000000e+00
1
Step 154000
Ar 4.340103e-01 0.000000e+00 0.000000e+00
1
Step 155000
Ar -2.131895e-01 0.000000e+00 0.000000e+00
1
Step 156000
Ar -1.037653e+00 0.000000e+00 0.000000e+00
1
Step 157000
Ar -1.117354e+00 0.000000e+00 0.000000e+00
1
Step 158000
Ar -9.408059e-01 0.000000e+00 0.000000e+00
1
Step 159000
Ar -9.767635e-01 0.000000e+00 0.000000e+00
1
Step 160000
Ar -9.900525e-01 0.000000e+00 0.000000e+00
1
Step 161000
Ar -1.135729e+00 0.000000e+00 0.000000e+00
1
Step 162000
Ar -1.141827e+00 0.000000e+00 0.000000e+00
1
Step 163000
Ar -1.236390e+00 0.000000e+00 0.000000e+00
1
Step 164000
Ar -1.234198e+00 0.000000e+00 0.000000e+00
1
Step 165000
Ar -1.281726e+00 0.000000e+00 0.000000e+00
1
Step 166000
Ar -1.284241e+00 0.000000e+00 0.000000e+00
1
Step 167000
Ar -1.233796e+00 0.000000e+00 0.000000e+00
1
Step 168000
Ar -1.310104e+00 0.000000e+00 0.000000e+00
1
Step 169000
Ar -1.372700e+00 0.000000e+00 0.000000e+00
1
Step 170000
Ar -1.307193e+00 0.000000e+00 0.000000e+00
1
Step 171000
Ar -1.299499e+00 0.000000e+00 0.000000e+00
1
Step 172000
Ar -1.305183e+00 0.000000e+00 0.000000e+00
1
Step 173000
Ar -1.301149e+00 0.000000e+00 0.000000e+00
1
Step 174000
Ar -1.298771e+00 0.000000e+00 0.000000e+00
1
Step 175000
Ar -1.300835e+00 0.000000e+00 0.000000e+00
1
Step 176000
Ar -1.298978e+00 0.000000e+00 0.000000e+00
1
Step 177000
Ar -1.293126e+00 0.000000e+00 0.000000e+00
1
Step 178000
Ar -1.190946e+00 0.000000e+00 0.000000e+00
1
Step 179000
Ar -9.867433e-01 0.000000e+00 0.000000e+00
1
Step 180000
Ar -9.237443e-01 0.000000e+00 0.000000e+00
1
Step 181000
Ar -9.205579e-01 0.000000e+00 0.000000e+00
1
Step 182000
Ar -1.150182e+00 0.000000e+00 0.000000e+00
1
Step 183000
Ar -1.144038e+00 0.000000e+00 0.000000e+00
1
Step 184000
Ar -1.116212e+00 0.000000e+00 0.000000e+00
1
Step 185000
Ar -1.173038e+00 0.000000e+00 0.000000e+00
1
Step 186000
Ar -1.152874e+00 0.000000e+00 0.000000e+00
1
Step 187000
Ar -1.154907e+00 0.000000e+00 0.000000e+00
1
Step 188000
Ar -1.152775e+00 0.000000e+00 0.000000e+00
1
Step 189000
Ar -8.950416e-01 0.000000e+00 0.000000e+00
1
Step 190000
Ar -9.018406e-01 0.000000e+00 0.000000e+00
1
Step 191000
Ar -1.024062e+00 0.000000e+00 0.000000e+00
1
Step 192000
Ar -9.248899e-01 0.000000e+00 0.000000e+00
1
Step 193000
Ar -9.478791e-01 0.000000e+00 0.000000e+00
1
Step 194000
Ar -1.038469e+00 0.000000e+00 0.000000e+00
1
Step 195000
Ar -9.720067e-01 0.000000e+00 0.000000e+00
1
Step 196000
Ar -9.074382e-01 0.000000e+00 0.000000e+00
1
Step 197000
Ar -9.769504e-01 0.000000e+00 0.000000e+00
1
Step 198000
Ar -9.687664e-01 0.000000e+00 0.000000e+00
1
Step 199000
Ar -9.498946e-01 0.000000e+00 0.000000e+00
1
Step 200000
Ar -9.477400e-01 0.000000e+00 0.000000e+00
1
Step 201000
Ar -9.348868e-01 0.000000e+00 0.000000e+00
1
Step 202000
Ar -8.739105e-01 0.000000e+00 0.000000e+00
1
Step 203000
Ar -9.837185e-01 0.000000e+00 0.000000e+00
1
Step 204000
Ar -8.785237e-01 0.000000e+00 0.000000e+00
1
Step 205000
Ar -9.855560e-01 0.000000e+00 0.000000e+00
1
Step 206000
Ar -9.992518e-01 0.000000e+00 0.000000e+00
1
Step 207000
Ar -9.376570e-01 0.000000e+00 0.000000e+00
1
Step 208000
Ar -9.612761e-01 0.000000e+00 0.000000e+00
1
Step 209000
Ar -9.207005e-01 0.000000e+00 0.000000e+00
1
Step 210000
Ar -9.301853e-01 0.000000e+00 0.000000e+00
1
Step 211000
Ar -8.609087e-01 0.000000e+00 0.000000e+00
1
Step 212000
Ar -8.701688e-01 0.000000e+00 0.000000e+00
1
Step 213000
Ar -8.677979e-01 0.000000e+00 0.000000e+00
1
Step 214000
Ar -8.565808e-01 0.000000e+00 0.000000e+00
1
Step 215000
Ar -8.559090e-01 0.000000e+00 0.000000e+00
1
Step 216000
Ar -8.560153e-01 0.000000e+00 0.000000e+00
1
Step 217000
Ar -8.551142e-01 0.000000e+00 0.000000e+00
1
Step 218000
Ar -1.243223e+00 0.000000e+00 0.000000e+00
1
Step 219000
Ar -1.266787e+00 0.000000e+00 0.000000e+00
1
Step 220000
Ar -1.256170e+00 0.000000e+00 0.000000e+00
1
Step 221000
Ar -1.235675e+00 0.000000e+00 0.000000e+00
1
Step 222000
Ar -1.248234e+00 0.000000e+00 0.000000e+00
1
Step 223000
Ar -1.267453e+00 0.000000e+00 0.000000e+00
1
Step 224000
Ar -1.258048e+00 0.000000e+00 0.000000e+00
1
Step 225000
Ar -1.233797e+00 0.000000e+00 0.000000e+00
1
Step 226000
Ar -1.267485e+00 0.000000e+00 0.000000e+00
1
Step 227000
Ar -1.234519e+00 0.000000e+00 0.000000e+00
1
Step 228000
Ar -1.248367e+00 0.000000e+00 0.000000e+00
1
Step 229000
Ar -1.244895e+00 0.000000e+00 0.000000e+00
1
Step 230000
Ar -1.254033e+00 0.000000e+00 0.000000e+00
1
Step 231000
Ar -1.239920e+00 0.000000e+00 0.000000e+00
1
Step 232000
Ar -1.238214e+00 0.000000e+00 0.000000e+00
1
Step 233000
Ar -1.241906e+00 0.000000e+00 0.000000e+00
1
Step 234000
Ar -1.330481e+00 0.000000e+00 0.000000e+00
1
Step 235000
Ar -1.331657e+00 0.000000e+00 0.000000e+00
1
Step 236000
Ar -1.358135e+00 0.000000e+00 0.000000e+00
1
Step 237000
Ar -1.367929e+00 0.000000e+00 0.000000e+00
1
Step 238000
Ar -1.355526e+00 0.000000e+00 0.000000e+00
1
Step 239000
Ar -1.349722e+00 0.000000e+00 0.000000e+00
1
Step 240000
Ar -1.045752e+00 0.000000e+00 0.000000e+00
1
Step 241000
Ar -1.033716e+00 0.000000e+00 0.000000e+00
1
Step 242000
Ar -9.329341e-01 0.000000e+00 0.000000e+00
1
Step 243000
Ar -9.259414e-01 0.000000e+00 0.000000e+00
1
Step 244000
Ar -9.691007e-01 0.000000e+00 0.000000e+00
1
Step 245000
Ar -9.400169e-01 0.000000e+00 0.000000e+00
1
Step 246000
Ar -9.984453e-01 0.000000e+00 0.000000e+00
1
Step 247000
Ar -9.646266e-01 0.000000e+00 0.000000e+00
1
Step 248000
Ar -9.442884e-01 0.000000e+00 0.000000e+00
1
Step 249000
Ar -9.567557e-01 0.000000e+00 0.000000e+00
1
Step 250000
Ar -9.484087e-01 0.000000e+00 0.000000e+00
1
Step 251000
Ar -9.381826e-01 0.000000e+00 0.000000e+00
1
Step 252000
Ar -9.488923e-01 0.000000e+00 0.000000e+00
1
Step 253000
Ar -9.395981e-01 0.000000e+00 0.000000e+00
1
Step 254000
Ar -9.329959e-01 0.000000e+00 0.000000e+00
1
Step 255000
Ar -9.596424e-01 0.000000e+00 0.000000e+00
1
Step 256000
Ar -9.351617e-01 0.000000e+00 0.000000e+00
1
Step 257000
Ar -9.897664e-01 0.000000e+00 0.000000e+00
1
Step 258000
Ar -1.070277e+00 0.000000e+00 0.000000e+00
1
Step 259000
Ar -1.066835e+00 0.000000e+00 0.000000e+00
1
Step 260000
Ar -1.022616e+00 0.000000e+00 0.000000e+00
1
Step 261000
Ar -1.025883e+00 0.000000e+00 0.000000e+00
1
Step 262000
Ar -1.050321e+00 0.000000e+00 0.000000e+00
1
Step 263000
Ar -1.047528e+00 0.000000e+00 0.000000e+00
1
Step 264000
Ar -1.045567e+00 0.000000e+00 0.000000e+00
1
Step 265000
Ar -1.043970e+00 0.000000e+00 0.000000e+00
1
Step 266000
Ar -1.046072e+00 0.000000e+00 0.000000e+00
1
Step 267000
Ar -9.644633e-01 0.000000e+00 0.000000e+00
1
Step 268000
Ar -9.639235e-01 0.000000e+00 0.000000e+00
1
Step 269000
Ar -9.688827e-01 0.000000e+00 0.000000e+00
1
Step 270000
Ar -9.704058e-01 0.000000e+00 0.000000e+00
1
Step 271000
Ar -9.662938e-01 0.000000e+00 0.000000e+00
1
Step 272000
Ar -9.689830e-01 0.000000e+00 0.000000e+00
1
Step 273000
Ar -9.636795e-01 0.000000e+00 0.000000e+00
1
Step 274000
Ar -9.616183e-01 0.000000e+00 0.000000e+00
1
Step 275000
Ar -9.684040e-01 0.000000e+00 0.000000e+00
1
Step 276000
Ar -9.607918e-01 0.000000e+00 0.000000e+00
1
Step 277000
Ar -9.623018e-01 0.000000e+00 0.000000e+00
1
Step 278000
Ar -9.633444e-01 0.000000e+00 0.000000e+00
1
Step 279000
Ar -9.610784e-01 0.000000e+00 0.000000e+00
1
Step 280000
Ar -8.789543e-01 0.000000e+00 0.000000e+00
1
Step 281000
Ar -7.642333e-01 0.000000e+00 0.000000e+00
1
Step 282000
Ar -7.629224e-01 0.000000e+00 0.000000e+00
1
Step 283000
Ar -6.855937e-01 0.000000e+00 0.000000e+00
1
Step 284000
Ar -6.677007e-01 0.000000e+00 0.000000e+00
1
Step 285000
Ar -8.079624e-01 0.000000e+00 0.000000e+00
1
Step 286000
Ar -6.283191e-01 0.000000e+00 0.000000e+00
1
Step 287000
Ar -7.729918e-01 0.000000e+00 0.000000e+00
1
Step 288000
Ar -7.686966e-01 0.000000e+00 0.000000e+00
1
Step 289000
Ar -7.484998e-01 0.000000e+00 0.000000e+00
1
Step 290000
Ar -6.213513e-01 0.000000e+00 0.000000e+00
1
Step 291000
Ar -7.174865e-01 0.000000e+00 0.000000e+00
1
Step 292000
Ar -7.860354e-01 0.000000e+00 0.000000e+00
1
Step 293000
Ar -7.374342e-01 0.000000e+00 0.000000e+00
1
Step 294000
Ar -7.719911e-01 0.000000e+00 0.000000e+00
1
Step 295000
Ar -7.237304e-01 0.000000e+00 0.000000e+00
1
Step 296000
Ar -5.676958e-01 0.000000e+00 0.000000e+00
1
Step 297000
Ar -3.760472e-01 0.000000e+00 0.000000e+00
1
Step 298000
Ar -5.589310e-01 0.000000e+00 0.000000e+00
1
Step 299000
Ar -6.319568e-01 0.000000e+00 0.000000e+00
1
Step 300000
Ar -6.241702e-01 0.000000e+00 0.000000e+00
1
Step 301000
Ar -6.305362e-01 0.000000e+00 0.000000e+00
1
Step 302000
Ar -6.295795e-01 0.000000e+00 0.000000e+00
1
Step 303000
Ar -6.258996e-01 0.000000e+00 0.000000e+00
1
Step 304000
Ar -6.322685e-01 0.000000e+00 0.000000e+00
1
Step 305000
Ar -6.334708e-01 0.000000e+00 0.000000e+00
1
Step 306000
Ar -7.473427e-01 0.000000e+00 0.000000e+00
1
Step 307000
Ar -7.548056e-01 0.000000e+00 0.000000e+00
1
Step 308000
Ar -7.361923e-01 0.000000e+00 0.000000e+00
1
Step 309000
Ar -7.280272e-01 0.000000e+00 0.000000e+00
1
Step 310000
Ar -7.208927e-01 0.000000e+00 0.000000e+00
1
Step 311000
Ar -7.593076e-01 0.000000e+00 0.000000e+00
1
Step 312000
Ar -7.427580e-01 0.000000e+00 0.000000e+00
1
Step 313000
Ar -7.253049e-01 0.000000e+00 0.000000e+00
1
Step 314000
Ar -7.101128e-01 0.000000e+00 0.000000e+00
1
Step 315000
Ar -6.979912e-01 0.000000e+00 0.000000e+00
1
Step 316000
Ar -6.768942e-01 0.000000e+00 0.000000e+00
1
Step 317000
Ar -7.511568e-01 0.000000e+00 0.000000e+00
1
Step 318000
Ar -7.284940e-01 0.000000e+00 0.000000e+00
1
Step 319000
Ar -7.015977e-01 0.000000e+00 0.000000e+00
1
Step 320000
Ar -7.340712e-01 0.000000e+00 0.000000e+00
1
Step 321000
Ar -7.273044e-01 0.000000e+00 0.000000e+00
1
Step 322000
Ar -7.124284e-01 0.000000e+00 0.000000e+00
1
Step 323000
Ar -7.176370e-01 0.000000e+00 0.000000e+00
1
Step 324000
Ar -7.612976e-01 0.000000e+00 0.000000e+00
1
Step 325000
Ar -7.637504e-01 0.000000e+00 0.000000e+00
1
Step 326000
Ar -6.761763e-01 0.000000e+00 0.000000e+00
1
Step 327000
Ar -7.055864e-01 0.000000e+00 0.000000e+00
1
Step 328000
Ar -7.182556e-01 0.000000e+00 0.000000e+00
1
Step 329000
Ar -7.296644e-01 0.000000e+00 0.000000e+00
1
Step 330000
Ar -7.353279e-01 0.000000e+00 0.000000e+00
1
Step 331000
Ar -7.099669e-01 0.000000e+00 0.000000e+00
1
Step 332000
Ar -7.329245e-01 0.000000e+00 0.000000e+00
1
Step 333000
Ar -7.390966e-01 0.000000e+00 0.000000e+00
1
Step 334000
Ar -8.132039e-01 0.000000e+00 0.000000e+00
1
Step 335000
Ar -8.108087e-01 0.000000e+00 0.000000e+00
1
Step 336000
Ar -8.129609e-01 0.000000e+00 0.000000e+00
1
Step 337000
Ar -8.089892e-01 0.000000e+00 0.000000e+00
1
Step 338000
Ar -8.109217e-01 0.000000e+00 0.000000e+00
1
Step 339000
Ar 3.375213e-01 0.000000e+00 0.000000e+00
1
Step 340000
Ar 2.489525e-01 0.000000e+00 0.000000e+00
1
Step 341000
Ar 3.685778e-01 0.000000e+00 0.000000e+00
1
Step 342000
Ar 2.211577e-01 0.000000e+00 0.000000e+00
1
Step 343000
Ar -3.098062e-02 0.000000e+00 0.000000e+00
1
Step 344000
Ar -5.615343e-01 0.000000e+00 0.000000e+00
1
Step 345000
Ar 3.993352e-01 0.000000e+00 0.000000e+00
1
Step 346000
Ar -5.784182e-01 0.000000e+00 0.000000e+00
1
Step 347000
Ar -3.188030e-01 0.000000e+00 0.000000e+00
1
Step 348000
Ar -5.663841e-01 0.000000e+00 0.000000e+00
1
Step 349000
Ar -5.807514e-01 0.000000e+00 0.000000e+00
1
Step 350000
Ar -5.270820e-01 0.000000e+00 0.000000e+00
1
Step 351000
Ar 3.518792e-01 0.000000e+00 0.000000e+00
1
Step 352000
Ar 3.117542e-01 0.000000e+00 0.000000e+00
1
Step 353000
Ar 3.600313e-01 0.000000e+00 0.000000e+00
1
Step 354000
Ar 3.632017e-01 0.000000e+00 0.000000e+00
1
Step 355000
Ar 3.726884e-01 0.000000e+00 0.000000e+00
1
Step 356000
Ar 3.775635e-01 0.000000e+00 0.000000e+00
1
Step 357000
Ar 1.944706e-01 0.000000e+00 0.000000e+00
1
Step 358000
Ar 2.991267e-01 0.000000e+00 0.000000e+00
1
Step 359000
Ar 3.822257e-01 0.000000e+00 0.000000e+00
1
Step 360000
Ar 3.913784e-01 0.000000e+00 0.000000e+00
1
Step 361000
Ar -2.662505e-01 0.000000e+00 0.000000e+00
1
Step 362000
Ar -3.387560e-01 0.000000e+00 0.000000e+00
1
Step 363000
Ar -2.665585e-01 0.000000e+00 0.000000e+00
1
Step 364000
Ar -4.060654e-01 0.000000e+00 0.000000e+00
1
Step 365000
Ar -4.040786e-01 0.000000e+00 0.000000e+00
1
Step 366000
Ar -3.975192e-01 0.000000e+00 0.000000e+00
1
Step 367000
Ar -4.043128e-01 0.000000e+00 0.000000e+00
1
Step 368000
Ar -3.970236e-01 0.000000e+00 0.000000e+00
1
Step 369000
Ar -4.127996e-01 0.000000e+00 0.000000e+00
1
Step 370000
Ar -4.006951e-01 0.000000e+00 0.000000e+00
1
Step 371000
Ar -7.057566e-01 0.000000e+00 0.000000e+00
1
Step 372000
Ar -7.176602e-01 0.000000e+00 0.000000e+00
1
Step 373000
Ar -7.182213e-01 0.000000e+00 0.000000e+00
1
Step 374000
Ar -8.066269e-01 0.000000e+00 0.000000e+00
1
Step 375000
Ar -5.208704e-01 0.000000e+00 0.000000e+00
1
Step 376000
Ar -5.376824e-01 0.000000e+00 0.000000e+00
1
Step 377000
Ar -4.448025e-01 0.000000e+00 0.000000e+00
1
Step 378000
Ar -5.800394e-01 0.000000e+00 0.000000e+00
1
Step 379000
Ar -1.181491e-01 0.000000e+00 0.000000e+00
1
Step 380000
Ar -1.101771e-01 0.000000e+00 0.000000e+00
1
Step 381000
Ar -3.059337e-01 0.000000e+00 0.000000e+00
1
Step 382000
Ar 1.309400e-01 0.000000e+00 0.000000e+00
1
Step 383000
Ar -3.185226e-01 0.000000e+00 0.000000e+00
1
Step 384000
Ar -3.228890e-01 0.000000e+00 0.000000e+00
1
Step 385000
Ar 1.741651e-01 0.000000e+00 0.000000e+00
1
Step 386000
Ar -3.239759e-01 0.000000e+00 0.000000e+00
1
Step 387000
Ar -2.529428e-01 0.000000e+00 0.000000e+00
1
Step 388000
Ar 2.130608e-01 0.000000e+00 0.000000e+00
1
Step 389000
Ar 1.530774e-02 0.000000e+00 0.000000e+00
1
Step 390000
Ar -3.276707e-01 0.000000e+00 0.000000e+00
1
Step 391000
Ar -2.342390e-01 0.000000e+00 0.000000e+00
1
Step 392000
Ar -2.227244e-01 0.000000e+00 0.000000e+00
1
Step 393000
Ar -2.932548e-01 0.000000e+00 0.000000e+00
1
Step 394000
Ar 1.192705e-01 0.000000e+00 0.000000e+00
1
Step 395000
Ar 1.726740e-01 0.000000e+00 0.000000e+00
1
Step 396000
Ar -1.303287e-01 0.000000e+00 0.000000e+00
1
Step 397000
Ar 1.869748e-02 0.000000e+00 0.000000e+00
1
Step 398000
Ar -9.501624e-02 0.000000e+00 0.000000e+00
1
Step 399000
Ar -2.312269e-01 0.000000e+00 0.000000e+00
1
Step 400000
Ar -1.586454e-01 0.000000e+00 0.000000e+00
1
Step 401000
Ar -1.388287e-01 0.000000e+00 0.000000e+00
1
Step 402000
Ar -1.555961e-01 0.000000e+00 0.000000e+00
1
Step 403000
Ar -1.314465e-01 0.000000e+00 0.000000e+00
1
Step 404000
Ar -1.563222e-01 0.000000e+00 0.000000e+00
1
Step 405000
Ar -1.475156e-01 0.000000e+00 0.000000e+00
1
Step 406000
Ar -1.316464e-01 0.000000e+00 0.000000e+00
1
Step 407000
Ar -1.506667e-01 0.000000e+00 0.000000e+00
1
Step 408000
Ar -1.507383e-01 0.000000e+00 0.000000e+00
1
Step 409000
Ar -2.459460e-01 0.000000e+00 0.000000e+00
1
Step 410000
Ar -2.858947e-01 0.000000e+00 0.000000e+00
1
Step 411000
Ar -2.658171e-01 0.000000e+00 0.000000e+00
1
Step 412000
Ar -2.668761e-01 0.000000e+00 0.000000e+00
1
Step 413000
Ar -3.083273e-01 0.000000e+00 0.000000e+00
1
Step 414000
Ar -2.742753e-01 0.000000e+00 0.000000e+00
1
Step 415000
Ar -2.209527e-01 0.000000e+00 0.000000e+00
1
Step 416000
Ar -2.333113e-01 0.000000e+00 0.000000e+00
1
Step 417000
Ar -2.811189e-01 0.000000e+00 0.000000e+00
1
Step 418000
Ar -2.423434e-01 0.000000e+00 0.000000e+00
1
Step 419000
Ar -2.300895e-01 0.000000e+00 0.000000e+00
1
Step 420000
Ar -2.402876e-01 0.000000e+00 0.000000e+00
1
Step 421000
Ar -2.243591e-01 0.000000e+00 0.000000e+00
1
Step 422000
Ar -2.009812e-01 0.000000e+00 0.000000e+00
1
Step 423000
Ar -1.700767e-01 0.000000e+00 0.000000e+00
1
Step 424000
Ar -1.707197e-01 0.000000e+00 0.000000e+00
1
Step 425000
Ar -1.701612e-01 0.000000e+00 0.000000e+00
1
Step 426000
Ar -1.669187e-01 0.000000e+00 0.000000e+00
1
Step 427000
Ar -1.703703e-01 0.000000e+00 0.000000e+00
1
Step 428000
Ar -1.733073e-01 0.000000e+00 0.000000e+00
1
Step 429000
Ar -1.697591e-01 0.000000e+00 0.000000e+00
1
Step 430000
Ar -1.672243e-01 0.000000e+00 0.000000e+00
1
Step 431000
Ar -1.661490e-01 0.000000e+00 0.000000e+00
1
Step 432000
Ar -1.683004e-01 0.000000e+00 0.000000e+00
1
Step 433000
Ar -1.672533e-01 0.000000e+00 0.000000e+00
1
Step 434000
Ar -1.702649e-01 0.000000e+00 0.000000e+00
1
Step 435000
Ar -1.715525e-01 0.000000e+00 0.000000e+00
1
Step 436000
Ar -1.670769e-01 0.000000e+00 0.000000e+00
1
Step 437000
Ar -1.697153e-01 0.000000e+00 0.000000e+00
1
Step 438000
Ar -1.763985e-01 0.000000e+00 0.000000e+00
1
Step 439000
Ar -1.653989e-01 0.000000e+00 0.000000e+00
1
Step 440000
Ar -1.676558e-01 0.000000e+00 0.000000e+00
1
Step 441000
Ar -1.624863e-01 0.000000e+00 0.000000e+00
1
Step 442000
Ar -1.671799e-01 0.000000e+00 0.000000e+00
1
Step 443000
Ar -1.657003e-01 0.000000e+00 0.000000e+00
1
Step 444000
Ar -1.694614e-01 0.000000e+00 0.000000e+00
1
Step 445000
Ar -1.669971e-01 0.000000e+00 0.000000e+00
1
Step 446000
Ar -1.698896e-01 0.000000e+00 0.000000e+00
1
Step 447000
Ar -1.681101e-01 0.000000e+00 0.000000e+00
1
Step 448000
Ar 1.578907e-01 0.000000e+00 0.000000e+00
1
Step 449000
Ar 2.487775e-01 0.000000e+00 0.000000e+00
1
Step 450000
Ar 3.769986e-01 0.000000e+00 0.000000e+00
1
Step 451000
Ar 3.300657e-01 0.000000e+00 0.000000e+00
1
Step 452000
Ar 3.752557e-01 0.000000e+00 0.000000e+00
1
Step 453000
Ar 2.934931e-01 0.000000e+00 0.000000e+00
1
Step 454000
Ar 3.563833e-01 0.000000e+00 0.000000e+00
1
Step 455000
Ar 3.735433e-01 0.000000e+00 0.000000e+00
1
Step 456000
Ar 2.751244e-01 0.000000e+00 0.000000e+00
1
Step 457000
Ar 3.362274e-01 0.000000e+00 0.000000e+00
1
Step 458000
Ar 3.602807e-01 0.000000e+00 0.000000e+00
1
Step 459000
Ar 2.466184e-01 0.000000e+00 0.000000e+00
1
Step 460000
Ar 3.582183e-01 0.000000e+00 0.000000e+00
1
Step 461000
Ar 3.515771e-01 0.000000e+00 0.000000e+00
1
Step 462000
Ar 3.657662e-01 0.000000e+00 0.000000e+00
1
Step 463000
Ar 2.965207e-01 0.000000e+00 0.000000e+00
1
Step 464000
Ar 3.832410e-01 0.000000e+00 0.000000e+00
1
Step 465000
Ar 3.586793e-01 0.000000e+00 0.000000e+00
1
Step 466000
Ar 3.154007e-01 0.000000e+00 0.000000e+00
1
Step 467000
Ar 3.602873e-01 0.000000e+00 0.000000e+00
1
Step 468000
Ar 3.574917e-01 0.000000e+00 0.000000e+00
1
Step 469000
Ar 3.828745e-01 0.000000e+00 0.000000e+00
1
Step 470000
Ar 2.033373e-01 0.000000e+00 0.000000e+00
1
Step 471000
Ar 2.022047e-01 0.000000e+00 0.000000e+00
1
Step 472000
Ar 2.096797e-01 0.000000e+00 0.000000e+00
1
Step 473000
Ar 2.075538e-01 0.000000e+00 0.000000e+00
1
Step 474000
Ar 1.961066e-01 0.000000e+00 0.000000e+00
1
Step 475000
Ar 2.022868e-01 0.000000e+00 0.000000e+00
1
Step 476000
Ar 2.038281e-01 0.000000e+00 0.000000e+00
1
Step 477000
Ar 2.124983e-01 0.000000e+00 0.000000e+00
1
Step 478000
Ar 2.050227e-01 0.000000e+00 0.000000e+00
1
Step 479000
Ar 1.992151e-01 0.000000e+00 0.000000e+00
1
Step 480000
Ar 2.095089e-01 0.000000e+00 0.000000e+00
1
Step 481000
Ar 2.042560e-01 0.000000e+00 0.000000e+00
1
Step 482000
Ar 2.063177e-01 0.000000e+00 0.000000e+00
1
Step 483000
Ar 2.067254e-01 0.000000e+00 0.000000e+00
1
Step 484000
Ar 1.959459e-01 0.000000e+00 0.000000e+00
1
Step 485000
Ar 1.996670e-01 0.000000e+00 0.000000e+00
1
Step 486000
Ar 2.006379e-01 0.000000e+00 0.000000e+00
1
Step 487000
Ar 2.022037e-01 0.000000e+00 0.000000e+00
1
Step 488000
Ar 2.124781e-01 0.000000e+00 0.000000e+00
1
Step 489000
Ar 2.087472e-01 0.000000e+00 0.000000e+00
1
Step 490000
Ar 1.980819e-01 0.000000e+00 0.000000e+00
1
Step 491000
Ar 1.969831e-01 0.000000e+00 0.000000e+00
1
Step 492000
Ar 2.009924e-01 0.000000e+00 0.000000e+00
1
Step 493000
Ar 2.005516e-01 0.000000e+00 0.000000e+00
1
Step 494000
Ar 2.017916e-01 0.000000e+00 0.000000e+00
1
Step 495000
Ar 2.022520e-01 0.000000e+00 0.000000e+00
1
Step 496000
Ar 1.957844e-01 0.000000e+00 0.000000e+00
1
Step 497000
Ar 1.934774e-01 0.000000e+00 0.000000e+00
1
Step 498000
Ar 1.960883e-01 0.000000e+00 0.000000e+00
1
Step 499000
Ar 1.944950e-01 0.000000e+00 0.000000e+00
1
Step 500000
Ar 3.711856e-01 0.000000e+00 0.000000e+00
1
Step 501000
Ar 3.805770e-01 0.000000e+00 0.000000e+00
1
Step 502000
Ar 3.774463e-01 0.000000e+00 0.000000e+00
1
Step 503000
Ar 3.684773e-01 0.000000e+00 0.000000e+00
1
Step 504000
Ar 3.796567e-01 0.000000e+00 0.000000e+00
1
Step 505000
Ar 3.845054e-01 0.000000e+00 0.000000e+00
1
Step 506000
Ar 3.741336e-01 0.000000e+00 0.000000e+00
1
Step 507000
Ar 3.861179e-01 0.000000e+00 0.000000e+00
1
Step 508000
Ar 3.915745e-01 0.000000e+00 0.000000e+00
1
Step 509000
Ar 3.855002e-01 0.000000e+00 0.000000e+00
1
Step 510000
Ar 3.377331e-01 0.000000e+00 0.000000e+00
1
Step 511000
Ar 4.371582e-01 0.000000e+00 0.000000e+00
1
Step 512000
Ar 4.316865e-01 0.000000e+00 0.000000e+00
1
Step 513000
Ar 4.304738e-01 0.000000e+00 0.000000e+00
1
Step 514000
Ar 4.286513e-01 0.000000e+00 0.000000e+00
1
Step 515000
Ar 4.298650e-01 0.000000e+00 0.000000e+00
1
Step 516000
Ar 4.331125e-01 0.000000e+00 0.000000e+00
1
Step 517000
Ar 4.350239e-01 0.000000e+00 0.000000e+00
1
Step 518000
Ar 4.319524e-01 0.000000e+00 0.000000e+00
1
Step 519000
Ar 4.331249e-01 0.000000e+00 0.000000e+00
1
Step 520000
Ar 4.352738e-01 0.000000e+00 0.000000e+00
1
Step 521000
Ar 4.344424e-01 0.000000e+00 0.000000e+00
1
Step 522000
Ar 2.741086e-01 0.000000e+00 0.000000e+00
1
Step 523000
Ar 2.735140e-01 0.000000e+00 0.000000e+00
1
Step 524000
Ar 2.709816e-01 0.000000e+00 0.000000e+00
1
Step 525000
Ar 2.637972e-01 0.000000e+00 0.000000e+00
1
Step 526000
Ar 2.570613e-01 0.000000e+00 0.000000e+00
1
Step 527000
Ar 2.473843e-01 0.000000e+00 0.000000e+00
1
Step 528000
Ar 2.853821e-01 0.000000e+00 0.000000e+00
1
Step 529000
Ar 2.803399e-01 0.000000e+00 0.000000e+00
1
Step 530000
Ar 2.801219e-01 0.000000e+00 0.000000e+00
1
Step 531000
Ar 2.758079e-01 0.000000e+00 0.000000e+00
1
Step 532000
Ar 2.854991e-01 0.000000e+00 0.000000e+00
1
Step 533000
Ar 2.702940e-01 0.000000e+00 0.000000e+00
1
Step 534000
Ar 2.822517e-01 0.000000e+00 0.000000e+00
1
Step 535000
Ar 2.779027e-01 0.000000e+00 0.000000e+00
1
Step 536000
Ar 2.636755e-01 0.000000e+00 0.000000e+00
1
Step 537000
Ar 2.670648e-01 0.000000e+00 0.000000e+00
1
Step 538000
Ar 2.645139e-01 0.000000e+00 0.000000e+00
1
Step 539000
Ar 2.651005e-01 0.000000e+00 0.000000e+00
1
Step 540000
Ar -4.143371e-03 0.000000e+00 0.000000e+00
1
Step 541000
Ar 2.726228e-02 0.000000e+00 0.000000e+00
1
Step 542000
Ar -8.744865e-02 0.000000e+00 0.000000e+00
1
Step 543000
Ar -9.340501e-02 0.000000e+00 0.000000e+00
1
Step 544000
Ar -9.451574e-02 0.000000e+00 0.000000e+00
1
Step 545000
Ar -8.966249e-02 0.000000e+00 0.000000e+00
1
Step 546000
Ar -9.298627e-02 0.000000e+00 0.000000e+00
1
Step 547000
Ar -9.155792e-02 0.000000e+00 0.000000e+00
1
Step 548000
Ar -8.706264e-02 0.000000e+00 0.000000e+00
1
Step 549000
Ar -8.828584e-02 0.000000e+00 0.000000e+00
1
Step 550000
Ar -9.099468e-02 0.000000e+00 0.000000e+00
1
Step 551000
Ar -9.149656e-02 0.000000e+00 0.000000e+00
1
Step 552000
Ar 9.045528e-03 0.000000e+00 0.000000e+00
1
Step 553000
Ar -1.577713e-02 0.000000e+00 0.000000e+00
1
Step 554000
Ar 1.601493e-02 0.000000e+00 0.000000e+00
1
Step 555000
Ar -6.196328e-02 0.000000e+00 0.000000e+00
1
Step 556000
Ar -4.940609e-02 0.000000e+00 0.000000e+00
1
Step 557000
Ar -4.928354e-02 0.000000e+00 0.000000e+00
1
Step 558000
Ar -5.757763e-02 0.000000e+00 0.000000e+00
1
Step 559000
Ar -5.113358e-02 0.000000e+00 0.000000e+00
1
Step 560000
Ar -1.633740e-01 0.000000e+00 0.000000e+00
1
Step 561000
Ar -1.660894e-01 0.000000e+00 0.000000e+00
1
Step 562000
Ar -6.005167e-01 0.000000e+00 0.000000e+00
1
Step 563000
Ar -4.956325e-01 0.000000e+00 0.000000e+00
1
Step 564000
Ar -5.020214e-01 0.000000e+00 0.000000e+00
1
Step 565000
Ar -5.070899e-01 0.000000e+00 0.000000e+00
1
Step 566000
Ar -5.174175e-01 0.000000e+00 0.000000e+00
1
Step 567000
Ar -5.146874e-01 0.000000e+00 0.000000e+00
1
Step 568000
Ar -5.055233e-01 0.000000e+00 0.000000e+00
1
Step 569000
Ar -5.004316e-01 0.000000e+00 0.000000e+00
1
Step 570000
Ar -4.991950e-01 0.000000e+00 0.000000e+00
1
Step 571000
Ar -5.496220e-01 0.000000e+00 0.000000e+00
1
Step 572000
Ar -5.480544e-01 0.000000e+00 0.000000e+00
1
Step 573000
Ar -5.472418e-01 0.000000e+00 0.000000e+00
1
Step 574000
Ar -1.105742e+00 0.000000e+00 0.000000e+00
1
Step 575000
Ar -2.359547e-01 0.000000e+00 0.000000e+00
1
Step 576000
Ar -2.524732e-01 0.000000e+00 0.000000e+00
1
Step 577000
Ar -2.764163e-01 0.000000e+00 0.000000e+00
1
Step 578000
Ar -2.779900e-01 0.000000e+00 0.000000e+00
1
Step 579000
Ar -3.030646e-01 0.000000e+00 0.000000e+00
1
Step 580000
Ar -3.278554e-01 0.000000e+00 0.000000e+00
1
Step 581000
Ar -2.872683e-01 0.000000e+00 0.000000e+00
1
Step 582000
Ar -3.159549e-01 0.000000e+00 0.000000e+00
1
Step 583000
Ar -3.221441e-01 0.000000e+00 0.000000e+00
1
Step 584000
Ar -3.173419e-01 0.000000e+00 0.000000e+00
1
Step 585000
Ar -2.830747e-01 0.000000e+00 0.000000e+00
1
Step 586000
Ar -2.812420e-01 0.000000e+00 0.000000e+00
1
Step 587000
Ar -2.540391e-01 0.000000e+00 0.000000e+00
1
Step 588000
Ar -2.507426e-01 0.000000e+00 0.000000e+00
1
Step 589000
Ar -2.528810e-01 0.000000e+00 0.000000e+00
1
Step 590000
Ar -2.502846e-01 0.000000e+00 0.000000e+00
1
Step 591000
Ar -2.545814e-01 0.000000e+00 0.000000e+00
1
Step 592000
Ar -2.513818e-01 0.000000e+00 0.000000e+00
1
Step 593000
Ar -3.109450e-01 0.000000e+00 0.000000e+00
1
Step 594000
Ar -3.010218e-01 0.000000e+00 0.000000e+00
1
Step 595000
Ar -3.015201e-01 0.000000e+00 0.000000e+00
1
Step 596000
Ar -3.065486e-01 0.000000e+00 0.000000e+00
1
Step 597000
Ar -3.129341e-01 0.000000e+00 0.000000e+00
1
Step 598000
Ar -3.143447e-01 0.000000e+00 0.000000e+00
1
Step 599000
Ar -7.996026e-01 0.000000e+00 0.000000e+00
1
Step 600000
Ar -1.025593e+00 0.000000e+00 0.000000e+00
1
Step 601000
Ar -7.191837e-01 0.000000e+00 0.000000e+00
1
Step 602000
Ar -7.108216e-01 0.000000e+00 0.000000e+00
1
Step 603000
Ar -7.037044e-01 0.000000e+00 0.000000e+00
1
Step 604000
Ar -7.081307e-01 0.000000e+00 0.000000e+00
1
Step 605000
Ar -7.063331e-01 0.000000e+00 0.000000e+00
1
Step 606000
Ar -7.196830e-01 0.000000e+00 0.000000e+00
1
Step 607000
Ar -7.183490e-01 0.000000e+00 0.000000e+00
1
Step 608000
Ar -7.068577e-01 0.000000e+00 0.000000e+00
1
Step 609000
Ar -7.082478e-01 0.000000e+00 0.000000e+00
1
Step 610000
Ar -7.157628e-01 0.000000e+00 0.000000e+00
1
Step 611000
Ar -7.195051e-01 0.000000e+00 0.000000e+00
1
Step 612000
Ar -7.050634e-01 0.000000e+00 0.000000e+00
1
Step 613000
Ar -7.129267e-01 0.000000e+00 0.000000e+00
1
Step 614000
Ar -7.171674e-01 0.000000e+00 0.000000e+00
1
Step 615000
Ar -7.181177e-01 0.000000e+00 0.000000e+00
1
Step 616000
Ar -7.109269e-01 0.000000e+00 0.000000e+00
1
Step 617000
Ar -9.910269e-01 0.000000e+00 0.000000e+00
1
Step 618000
Ar -1.021122e+00 0.000000e+00 0.000000e+00
1
Step 619000
Ar -1.276049e+00 0.000000e+00 0.000000e+00
1
Step 620000
Ar -1.269227e+00 0.000000e+00 0.000000e+00
1
Step 621000
Ar -1.191513e+00 0.000000e+00 0.000000e+00
1
Step 622000
Ar -1.370234e+00 0.000000e+00 0.000000e+00
1
Step 623000
Ar -1.359319e+00 0.000000e+00 0.000000e+00
1
Step 624000
Ar -1.361154e+00 0.000000e+00 0.000000e+00
1
Step 625000
Ar -1.356886e+00 0.000000e+00 0.000000e+00
1
Step 626000
Ar -1.356001e+00 0.000000e+00 0.000000e+00
1
Step 627000
Ar -1.389072e+00 0.000000e+00 0.000000e+00
1
Step 628000
Ar -1.388045e+00 0.000000e+00 0.000000e+00
1
Step 629000
Ar -1.390719e+00 0.000000e+00 0.000000e+00
1
Step 630000
Ar -1.387174e+00 0.000000e+00 0.000000e+00
1
Step 631000
Ar -1.384926e+00 0.000000e+00 0.000000e+00
1
Step 632000
Ar -1.392343e+00 0.000000e+00 0.000000e+00
1
Step 633000
Ar -1.383311e+00 0.000000e+00 0.000000e+00
1
Step 634000
Ar -1.388536e+00 0.000000e+00 0.000000e+00
1
Step 635000
Ar -1.390782e+00 0.000000e+00 0.000000e+00
1
Step 636000
Ar -1.393731e+00 0.000000e+00 0.000000e+00
1
Step 637000
Ar -1.385221e+00 0.000000e+00 0.000000e+00
1
Step 638000
Ar -1.384472e+00 0.000000e+00 0.000000e+00
1
Step 639000
Ar -1.391254e+00 0.000000e+00 0.000000e+00
1
Step 640000
Ar -1.396178e+00 0.000000e+00 0.000000e+00
1
Step 641000
Ar -1.446321e+00 0.000000e+00 0.000000e+00
1
Step 642000
Ar -1.440282e+00 0.000000e+00 0.000000e+00
1
Step 643000
Ar -1.428095e+00 0.000000e+00 0.000000e+00
1
Step 644000
Ar -1.463904e+00 0.000000e+00 0.000000e+00
1
Step 645000
Ar -1.421043e+00 0.000000e+00 0.000000e+00
1
Step 646000
Ar -1.418500e+00 0.000000e+00 0.000000e+00
1
Step 647000
Ar -1.421914e+00 0.000000e+00 0.000000e+00
1
Step 648000