1
Step 120000
Ar 9.094417e-01 0.000000e+00 0.000000e+00
1
Step 121000
Ar 1.061769e+00 0.000000e+00 0.000000e+00
1
Step 122000
Ar 9.603890e-01 0.000000e+00 0.000000e+00
1
Step 123000
Ar 1.141672e+00 0.000000e+00 0.000000e+00
1
Step 124000
Ar 9.858374e-01 0.000000e+00 0.000000e+00
1
Step 125000
Ar 1.082743e+00 0.000000e+00 0.000000e+00
1
Step 126000
Ar 1.003474e+00 0.000000e+00 0.000000e+00
1
Step 127000
Ar 1.119814e+00 0.000000e+00 0.000000e+00
1
Step 128000
Ar 1.175285e+00 0.000000e+00 0.000000e+00
1
Step 129000
Ar 1.190600e+00 0.000000e+00 0.000000e+00
1
Step 130000
Ar 1.154541e+00 0.000000e+00 0.000000e+00
1
Step 131000
Ar 1.028433e+00 0.000000e+00 0.000000e+00
1
Step 132000
Ar 8.761527e-01 0.000000e+00 0.000000e+00
1
Step 133000
Ar 9.232232e-01 0.000000e+00 0.000000e+00
1
Step 134000
Ar 9.394700e-01 0.000000e+00 0.000000e+00
1
Step 135000
Ar 8.575134e-01 0.000000e+00 0.000000e+00
1
Step 136000
Ar 8.379604e-01 0.000000e+00 0.000000e+00
1
Step 137000
Ar 8.270192e-01 0.000000e+00 0.000000e+00
1
Step 138000
Ar 6.749333e-01 0.000000e+00 0.000000e+00
1
Step 139000
Ar 9.116860e-01 0.000000e+00 0.000000e+00
1
Step 140000
Ar 8.933895e-01 0.000000e+00 0.000000e+00
1
Step 141000
Ar 8.839149e-01 0.000000e+00 0.000000e+00
1
Step 142000
Ar 1.097900e+00 0.000000e+00 0.000000e+00
1
Step 143000
Ar 1.017068e+00 0.000000e+00 0.000000e+00
1
Step 144000
Ar 7.666360e-01 0.000000e+00 0.000000e+00
1
Step 145000
Ar 7.974885e-01 0.000000e+00 0.000000e+00
1
Step 146000
Ar 8.126070e-01 0.000000e+00 0.000000e+00
1
Step 147000
Ar 7.894214e-01 0.000000e+00 0.000000e+00
1
Step 148000
Ar 7.812627e-01 0.000000e+00 0.000000e+00
1
Step 149000
Ar 5.217525e-01 0.000000e+00 0.000000e+00
1
Step 150000
Ar 5.322866e-01 0.000000e+00 0.000000e+00
1
Step 151000
Ar 4.860837e-01 0.000000e+00 0.000000e+00
1
Step 152000
Ar 6.089536e-01 0.000000e+00 0.000000e+00
1
Step 153000
Ar 5.914667e-01 0.000000e+00 0.000000e+00
1
Step 154000
Ar 5.810526e-01 0.000000e+00 0.000000e+00
1
Step 155000
Ar 5.607866e-01 0.000000e+00 0.000000e+00
1
Step 156000
Ar 5.443550e-01 0.000000e+00 0.000000e+00
1
Step 157000
Ar 6.374285e-01 0.000000e+00 0.000000e+00
1
Step 158000
Ar 6.165624e-01 0.000000e+00 0.000000e+00
1
Step 159000
Ar 7.372485e-01 0.000000e+00 0.000000e+00
1
Step 160000
Ar 7.134459e-01 0.000000e+00 0.000000e+00
1
Step 161000
Ar 6.529626e-01 0.000000e+00 0.000000e+00
1
Step 162000
Ar 6.603882e-01 0.000000e+00 0.000000e+00
1
Step 163000
Ar 7.492411e-01 0.000000e+00 0.000000e+00
1
Step 164000
Ar 1.077764e+00 0.000000e+00 0.000000e+00
1
Step 165000
Ar 9.037971e-01 0.000000e+00 0.000000e+00
1
Step 166000
Ar 9.268794e-01 0.000000e+00 0.000000e+00
1
Step 167000
Ar 9.796153e-01 0.000000e+00 0.000000e+00
1
Step 168000
Ar 9.487846e-01 0.000000e+00 0.000000e+00
1
Step 169000
Ar 1.042738e+00 0.000000e+00 0.000000e+00
1
Step 170000
Ar 9.645845e-01 0.000000e+00 0.000000e+00
1
Step 171000
Ar 1.213130e+00 0.000000e+00 0.000000e+00
1
Step 172000
Ar 1.284526e+00 0.000000e+00 0.000000e+00
1
Step 173000
Ar 1.201263e+00 0.000000e+00 0.000000e+00
1
Step 174000
Ar 1.258590e+00 0.000000e+00 0.000000e+00
1
Step 175000
Ar 1.243975e+00 0.000000e+00 0.000000e+00
1
Step 176000
Ar 1.127547e+00 0.000000e+00 0.000000e+00
1
Step 177000
Ar 1.184659e+00 0.000000e+00 0.000000e+00
1
Step 178000
Ar 1.055677e+00 0.000000e+00 0.000000e+00
1
Step 179000
Ar 9.964855e-01 0.000000e+00 0.000000e+00
1
Step 180000
Ar 9.745675e-01 0.000000e+00 0.000000e+00
1
Step 181000
Ar 8.594302e-01 0.000000e+00 0.000000e+00
1
Step 182000
Ar 9.157016e-01 0.000000e+00 0.000000e+00
1
Step 183000
Ar 8.956433e-01 0.000000e+00 0.000000e+00
1
Step 184000
Ar 6.948324e-01 0.000000e+00 0.000000e+00
1
Step 185000
Ar 7.593492e-01 0.000000e+00 0.000000e+00
1
Step 186000
Ar 6.843256e-01 0.000000e+00 0.000000e+00
1
Step 187000
Ar 8.487532e-01 0.000000e+00 0.000000e+00
1
Step 188000
Ar 4.666539e-01 0.000000e+00 0.000000e+00
1
Step 189000
Ar 4.981209e-01 0.000000e+00 0.000000e+00
1
Step 190000
Ar 3.126150e-01 0.000000e+00 0.000000e+00
1
Step 191000
Ar 4.491204e-01 0.000000e+00 0.000000e+00
1
Step 192000
Ar 5.771799e-01 0.000000e+00 0.000000e+00
1
Step 193000
Ar 5.087568e-01 0.000000e+00 0.000000e+00
1
Step 194000
Ar 4.783171e-01 0.000000e+00 0.000000e+00
1
Step 195000
Ar 3.645486e-01 0.000000e+00 0.000000e+00
1
Step 196000
Ar 4.126477e-01 0.000000e+00 0.000000e+00
1
Step 197000
Ar 3.256020e-01 0.000000e+00 0.000000e+00
1
Step 198000
Ar 3.485632e-01 0.000000e+00 0.000000e+00
1
Step 199000
Ar 4.378884e-01 0.000000e+00 0.000000e+00
1
Step 200000
Ar 4.589570e-01 0.000000e+00 0.000000e+00
1
Step 201000
Ar 2.196498e-01 0.000000e+00 0.000000e+00
1
Step 202000
Ar 2.720308e-01 0.000000e+00 0.000000e+00
1
Step 203000
Ar 2.818447e-01 0.000000e+00 0.000000e+00
1
Step 204000
Ar -9.999709e-01 0.000000e+00 0.000000e+00
1
Step 205000
Ar -7.297004e-01 0.000000e+00 0.000000e+00
1
Step 206000
Ar -6.798921e-01 0.000000e+00 0.000000e+00
1
Step 207000
Ar -8.708093e-01 0.000000e+00 0.000000e+00
1
Step 208000
Ar -9.406068e-01 0.000000e+00 0.000000e+00
1
Step 209000
Ar -8.822762e-01 0.000000e+00 0.000000e+00
1
Step 210000
Ar -1.033811e+00 0.000000e+00 0.000000e+00
1
Step 211000
Ar -9.529877e-01 0.000000e+00 0.000000e+00
1
Step 212000
Ar -9.290724e-01 0.000000e+00 0.000000e+00
1
Step 213000
Ar -1.119395e+00 0.000000e+00 0.000000e+00
1
Step 214000
Ar -1.138661e+00 0.000000e+00 0.000000e+00
1
Step 215000
Ar -1.105348e+00 0.000000e+00 0.000000e+00
1
Step 216000
Ar -9.654841e-01 0.000000e+00 0.000000e+00
1
Step 217000
Ar -8.505301e-01 0.000000e+00 0.000000e+00
1
Step 218000
Ar -8.228153e-01 0.000000e+00 0.000000e+00
1
Step 219000
Ar -7.615480e-01 0.000000e+00 0.000000e+00
1
Step 220000
Ar -7.920642e-01 0.000000e+00 0.000000e+00
1
Step 221000
Ar -1.019651e+00 0.000000e+00 0.000000e+00
1
Step 222000
Ar -9.805156e-01 0.000000e+00 0.000000e+00
1
Step 223000
Ar -7.468358e-01 0.000000e+00 0.000000e+00
1
Step 224000
Ar -7.118474e-01 0.000000e+00 0.000000e+00
1
Step 225000
Ar -9.582169e-01 0.000000e+00 0.000000e+00
1
Step 226000
Ar -8.085373e-01 0.000000e+00 0.000000e+00
1
Step 227000
Ar -9.476372e-01 0.000000e+00 0.000000e+00
1
Step 228000
Ar -7.754078e-01 0.000000e+00 0.000000e+00
1
Step 229000
Ar -8.602170e-01 0.000000e+00 0.000000e+00
1
Step 230000
Ar -8.376598e-01 0.000000e+00 0.000000e+00
1
Step 231000
Ar -9.117477e-01 0.000000e+00 0.000000e+00
1
Step 232000
Ar -8.881153e-01 0.000000e+00 0.000000e+00
1
Step 233000
Ar -8.989150e-01 0.000000e+00 0.000000e+00
1
Step 234000
Ar -9.257613e-01 0.000000e+00 0.000000e+00
1
Step 235000
Ar -6.606953e-01 0.000000e+00 0.000000e+00
1
Step 236000
Ar -6.421120e-01 0.000000e+00 0.000000e+00
1
Step 237000
Ar -7.710110e-01 0.000000e+00 0.000000e+00
1
Step 238000
Ar -8.765985e-01 0.000000e+00 0.000000e+00
1
Step 239000
Ar -9.087421e-01 0.000000e+00 0.000000e+00
1
Step 240000
Ar -1.148216e+00 0.000000e+00 0.000000e+00
1
Step 241000
Ar -1.191349e+00 0.000000e+00 0.000000e+00
1
Step 242000
Ar -1.176462e+00 0.000000e+00 0.000000e+00
1
Step 243000
Ar -1.235660e+00 0.000000e+00 0.000000e+00
1
Step 244000
Ar -1.077520e+00 0.000000e+00 0.000000e+00
1
Step 245000
Ar -1.092230e+00 0.000000e+00 0.000000e+00
1
Step 246000
Ar -1.059019e+00 0.000000e+00 0.000000e+00
1
Step 247000
Ar -1.046569e+00 0.000000e+00 0.000000e+00
1
Step 248000
Ar -1.072389e+00 0.000000e+00 0.000000e+00
1
Step 249000
Ar -1.216556e+00 0.000000e+00 0.000000e+00
1
Step 250000
Ar -1.162788e+00 0.000000e+00 0.000000e+00
1
Step 251000
Ar -1.205525e+00 0.000000e+00 0.000000e+00
1
Step 252000
Ar -1.130226e+00 0.000000e+00 0.000000e+00
1
Step 253000
Ar -1.187113e+00 0.000000e+00 0.000000e+00
1
Step 254000
Ar -9.900505e-01 0.000000e+00 0.000000e+00
1
Step 255000
Ar -1.054310e+00 0.000000e+00 0.000000e+00
1
Step 256000
Ar -1.007175e+00 0.000000e+00 0.000000e+00
1
Step 257000
Ar -9.983889e-01 0.000000e+00 0.000000e+00
1
Step 258000
Ar -1.109442e+00 0.000000e+00 0.000000e+00
1
Step 259000
Ar -1.086875e+00 0.000000e+00 0.000000e+00
1
Step 260000
Ar -1.037872e+00 0.000000e+00 0.000000e+00
1
Step 261000
Ar -1.015448e+00 0.000000e+00 0.000000e+00
1
Step 262000
Ar -1.157572e+00 0.000000e+00 0.000000e+00
1
Step 263000
Ar -1.024889e+00 0.000000e+00 0.000000e+00
1
Step 264000
Ar -8.291081e-01 0.000000e+00 0.000000e+00
1
Step 265000
Ar -7.848483e-01 0.000000e+00 0.000000e+00
1
Step 266000
Ar -8.216085e-01 0.000000e+00 0.000000e+00
1
Step 267000
Ar -8.967689e-01 0.000000e+00 0.000000e+00
1
Step 268000
Ar -8.442309e-01 0.000000e+00 0.000000e+00
1
Step 269000
Ar -9.680744e-01 0.000000e+00 0.000000e+00
1
Step 270000
Ar -9.769126e-01 0.000000e+00 0.000000e+00
1
Step 271000
Ar -9.883814e-01 0.000000e+00 0.000000e+00
1
Step 272000
Ar -5.482381e-01 0.000000e+00 0.000000e+00
1
Step 273000
Ar -6.980532e-01 0.000000e+00 0.000000e+00
1
Step 274000
Ar -6.123702e-01 0.000000e+00 0.000000e+00
1
Step 275000
Ar -5.650440e-01 0.000000e+00 0.000000e+00
1
Step 276000
Ar -5.943779e-01 0.000000e+00 0.000000e+00
1
Step 277000
Ar -5.430372e-01 0.000000e+00 0.000000e+00
1
Step 278000
Ar -4.232119e-01 0.000000e+00 0.000000e+00
1
Step 279000
Ar -5.314171e-01 0.000000e+00 0.000000e+00
1
Step 280000
Ar -5.040295e-01 0.000000e+00 0.000000e+00
1
Step 281000
Ar -4.706278e-01 0.000000e+00 0.000000e+00
1
Step 282000
Ar -5.165453e-01 0.000000e+00 0.000000e+00
1
Step 283000
Ar -4.829239e-01 0.000000e+00 0.000000e+00
1
Step 284000
Ar 2.109384e-01 0.000000e+00 0.000000e+00
1
Step 285000
Ar -7.281584e-04 0.000000e+00 0.000000e+00
1
Step 286000
Ar -4.524840e-01 0.000000e+00 0.000000e+00
1
Step 287000
Ar -4.403462e-01 0.000000e+00 0.000000e+00
1
Step 288000
Ar -2.797639e-01 0.000000e+00 0.000000e+00
1
Step 289000
Ar -4.932851e-01 0.000000e+00 0.000000e+00
1
Step 290000
Ar -3.911570e-01 0.000000e+00 0.000000e+00
1
Step 291000
Ar -3.616775e-01 0.000000e+00 0.000000e+00
1
Step 292000
Ar -3.389900e-01 0.000000e+00 0.000000e+00
1
Step 293000
Ar -2.887720e-01 0.000000e+00 0.000000e+00
1
Step 294000
Ar -4.998343e-01 0.000000e+00 0.000000e+00
1
Step 295000
Ar -3.031859e-01 0.000000e+00 0.000000e+00
1
Step 296000
Ar -3.245388e-01 0.000000e+00 0.000000e+00
1
Step 297000
Ar -8.416163e-01 0.000000e+00 0.000000e+00
1
Step 298000
Ar -6.278740e-01 0.000000e+00 0.000000e+00
1
Step 299000
Ar -6.907519e-01 0.000000e+00 0.000000e+00
1
Step 300000
Ar -6.563845e-01 0.000000e+00 0.000000e+00
1
Step 301000
Ar -5.813478e-01 0.000000e+00 0.000000e+00
1
Step 302000
Ar -6.056512e-01 0.000000e+00 0.000000e+00
1
Step 303000
Ar -7.192294e-01 0.000000e+00 0.000000e+00
1
Step 304000
Ar -6.680323e-01 0.000000e+00 0.000000e+00
1
Step 305000
Ar -7.555581e-01 0.000000e+00 0.000000e+00
1
Step 306000
Ar -6.164720e-01 0.000000e+00 0.000000e+00
1
Step 307000
Ar -6.498314e-01 0.000000e+00 0.000000e+00
1
Step 308000
Ar -5.845742e-01 0.000000e+00 0.000000e+00
1
Step 309000
Ar -6.039058e-01 0.000000e+00 0.000000e+00
1
Step 310000
Ar -5.341802e-01 0.000000e+00 0.000000e+00
1
Step 311000
Ar -7.360626e-01 0.000000e+00 0.000000e+00
1
Step 312000
Ar -7.872740e-01 0.000000e+00 0.000000e+00
1
Step 313000
Ar -7.188386e-01 0.000000e+00 0.000000e+00
1
Step 314000
Ar -8.039089e-01 0.000000e+00 0.000000e+00
1
Step 315000
Ar -5.650341e-01 0.000000e+00 0.000000e+00
1
Step 316000
Ar -5.997536e-01 0.000000e+00 0.000000e+00
1
Step 317000
Ar -3.441313e-01 0.000000e+00 0.000000e+00
1
Step 318000
Ar -4.107478e-01 0.000000e+00 0.000000e+00
1
Step 319000
Ar -3.677255e-01 0.000000e+00 0.000000e+00
1
Step 320000
Ar -4.297123e-01 0.000000e+00 0.000000e+00
1
Step 321000
Ar -4.621361e-01 0.000000e+00 0.000000e+00
1
Step 322000
Ar -4.844341e-01 0.000000e+00 0.000000e+00
1
Step 323000
Ar -5.233906e-01 0.000000e+00 0.000000e+00
1
Step 324000
Ar -5.150482e-01 0.000000e+00 0.000000e+00
1
Step 325000
Ar -7.015528e-01 0.000000e+00 0.000000e+00
1
Step 326000
Ar -6.348256e-01 0.000000e+00 0.000000e+00
1
Step 327000
Ar -7.421142e-01 0.000000e+00 0.000000e+00
1
Step 328000
Ar -7.668916e-01 0.000000e+00 0.000000e+00
1
Step 329000
Ar -7.589297e-01 0.000000e+00 0.000000e+00
1
Step 330000
Ar -6.379872e-01 0.000000e+00 0.000000e+00
1
Step 331000
Ar -7.523914e-01 0.000000e+00 0.000000e+00
1
Step 332000
Ar -6.867201e-01 0.000000e+00 0.000000e+00
1
Step 333000
Ar -6.716278e-01 0.000000e+00 0.000000e+00
1
Step 334000
Ar -6.073990e-01 0.000000e+00 0.000000e+00
1
Step 335000
Ar -1.011585e+00 0.000000e+00 0.000000e+00
1
Step 336000
Ar -9.359547e-01 0.000000e+00 0.000000e+00
1
Step 337000
Ar -8.847987e-01 0.000000e+00 0.000000e+00
1
Step 338000
Ar -9.180862e-01 0.000000e+00 0.000000e+00
1
Step 339000
Ar -1.047411e+00 0.000000e+00 0.000000e+00
1
Step 340000
Ar -1.291747e+00 0.000000e+00 0.000000e+00
1
Step 341000
Ar -1.263771e+00 0.000000e+00 0.000000e+00
1
Step 342000
Ar -1.223254e+00 0.000000e+00 0.000000e+00
1
Step 343000
Ar -1.275430e+00 0.000000e+00 0.000000e+00
1
Step 344000
Ar -1.282083e+00 0.000000e+00 0.000000e+00
1
Step 345000
Ar -1.329101e+00 0.000000e+00 0.000000e+00
1
Step 346000
Ar -1.341627e+00 0.000000e+00 0.000000e+00
1
Step 347000
Ar -1.407864e+00 0.000000e+00 0.000000e+00
1
Step 348000
Ar -1.093508e+00 0.000000e+00 0.000000e+00
1
Step 349000
Ar -1.200573e+00 0.000000e+00 0.000000e+00
1
Step 350000
Ar -1.365019e+00 0.000000e+00 0.000000e+00
1
Step 351000
Ar -1.355273e+00 0.000000e+00 0.000000e+00
1
Step 352000
Ar -1.099988e+00 0.000000e+00 0.000000e+00
1
Step 353000
Ar -1.118801e+00 0.000000e+00 0.000000e+00
1
Step 354000
Ar -1.252788e+00 0.000000e+00 0.000000e+00
1
Step 355000
Ar -1.246450e+00 0.000000e+00 0.000000e+00
1
Step 356000
Ar -1.231566e+00 0.000000e+00 0.000000e+00
1
Step 357000
Ar -1.316401e+00 0.000000e+00 0.000000e+00
1
Step 358000
Ar -1.306402e+00 0.000000e+00 0.000000e+00
1
Step 359000
Ar -1.239622e+00 0.000000e+00 0.000000e+00
1
Step 360000
Ar -1.380957e+00 0.000000e+00 0.000000e+00
1
Step 361000
Ar -1.394657e+00 0.000000e+00 0.000000e+00
1
Step 362000
Ar -1.306590e+00 0.000000e+00 0.000000e+00
1
Step 363000
Ar -1.067382e+00 0.000000e+00 0.000000e+00
1
Step 364000
Ar -1.083147e+00 0.000000e+00 0.000000e+00
1
Step 365000
Ar -1.037355e+00 0.000000e+00 0.000000e+00
1
Step 366000
Ar -1.073322e+00 0.000000e+00 0.000000e+00
1
Step 367000
Ar -9.421259e-01 0.000000e+00 0.000000e+00
1
Step 368000
Ar -9.303787e-01 0.000000e+00 0.000000e+00
1
Step 369000
Ar -7.992016e-01 0.000000e+00 0.000000e+00
1
Step 370000
Ar -8.585760e-01 0.000000e+00 0.000000e+00
1
Step 371000
Ar -8.666408e-01 0.000000e+00 0.000000e+00
1
Step 372000
Ar -8.739125e-01 0.000000e+00 0.000000e+00
1
Step 373000
Ar -8.173334e-01 0.000000e+00 0.000000e+00
1
Step 374000
Ar -8.631249e-01 0.000000e+00 0.000000e+00
1
Step 375000
Ar -7.784733e-01 0.000000e+00 0.000000e+00
1
Step 376000
Ar -8.135916e-01 0.000000e+00 0.000000e+00
1
Step 377000
Ar -8.479535e-01 0.000000e+00 0.000000e+00
1
Step 378000
Ar -7.963470e-01 0.000000e+00 0.000000e+00
1
Step 379000
Ar -6.713787e-01 0.000000e+00 0.000000e+00
1
Step 380000
Ar -7.088021e-01 0.000000e+00 0.000000e+00
1
Step 381000
Ar -7.799313e-01 0.000000e+00 0.000000e+00
1
Step 382000
Ar -7.847127e-01 0.000000e+00 0.000000e+00
1
Step 383000
Ar -9.613885e-01 0.000000e+00 0.000000e+00
1
Step 384000
Ar -1.060715e+00 0.000000e+00 0.000000e+00
1
Step 385000
Ar -1.167550e+00 0.000000e+00 0.000000e+00
1
Step 386000
Ar -1.211657e+00 0.000000e+00 0.000000e+00
1
Step 387000
Ar -1.126992e+00 0.000000e+00 0.000000e+00
1
Step 388000
Ar -1.140358e+00 0.000000e+00 0.000000e+00
1
Step 389000
Ar -1.180068e+00 0.000000e+00 0.000000e+00
1
Step 390000
Ar -1.111076e+00 0.000000e+00 0.000000e+00
1
Step 391000
Ar -1.153864e+00 0.000000e+00 0.000000e+00
1
Step 392000
Ar -1.194964e+00 0.000000e+00 0.000000e+00
1
Step 393000
Ar -1.211052e+00 0.000000e+00 0.000000e+00
1
Step 394000
Ar -1.375671e+00 0.000000e+00 0.000000e+00
1
Step 395000
Ar -1.257818e+00 0.000000e+00 0.000000e+00
1
Step 396000
Ar -1.286484e+00 0.000000e+00 0.000000e+00
1
Step 397000
Ar -1.155419e+00 0.000000e+00 0.000000e+00
1
Step 398000
Ar -1.443335e+00 0.000000e+00 0.000000e+00
1
Step 399000
Ar -1.297562e+00 0.000000e+00 0.000000e+00
1
Step 400000
Ar -1.349508e+00 0.000000e+00 0.000000e+00
1
Step 401000
Ar -1.322228e+00 0.000000e+00 0.000000e+00
1
Step 402000
Ar -1.332864e+00 0.000000e+00 0.000000e+00
1
Step 403000
Ar -1.193542e+00 0.000000e+00 0.000000e+00
1
Step 404000
Ar -1.270133e+00 0.000000e+00 0.000000e+00
1
Step 405000
Ar -1.250116e+00 0.000000e+00 0.000000e+00
1
Step 406000
Ar -1.239308e+00 0.000000e+00 0.000000e+00
1
Step 407000
Ar -1.424605e+00 0.000000e+00 0.000000e+00
1
Step 408000
Ar -1.454649e+00 0.000000e+00 0.000000e+00
1
Step 409000
Ar -1.366182e+00 0.000000e+00 0.000000e+00
1
Step 410000
Ar -1.300616e+00 0.000000e+00 0.000000e+00
1
Step 411000
Ar -1.313702e+00 0.000000e+00 0.000000e+00
1
Step 412000
Ar -1.388575e+00 0.000000e+00 0.000000e+00
1
Step 413000
Ar -1.470187e+00 0.000000e+00 0.000000e+00
1
Step 414000
Ar -1.429651e+00 0.000000e+00 0.000000e+00
1
Step 415000
Ar -1.480781e+00 0.000000e+00 0.000000e+00
1
Step 416000
Ar -1.412033e+00 0.000000e+00 0.000000e+00
1
Step 417000
Ar -1.397050e+00 0.000000e+00 0.000000e+00
1
Step 418000
Ar -1.462136e+00 0.000000e+00 0.000000e+00
1
Step 419000
Ar -1.493815e+00 0.000000e+00 0.000000e+00
1
Step 420000
Ar -1.502302e+00 0.000000e+00 0.000000e+00
1
Step 421000
Ar -1.512333e+00 0.000000e+00 0.000000e+00
1
Step 422000
Ar -1.263119e+00 0.000000e+00 0.000000e+00
1
Step 423000
Ar -1.274867e+00 0.000000e+00 0.000000e+00
1
Step 424000
Ar -1.176214e+00 0.000000e+00 0.000000e+00
1
Step 425000
Ar -1.168286e+00 0.000000e+00 0.000000e+00
1
Step 426000
Ar -1.006657e+00 0.000000e+00 0.000000e+00
1
Step 427000
Ar -1.048737e+00 0.000000e+00 0.000000e+00
1
Step 428000
Ar -1.024991e+00 0.000000e+00 0.000000e+00
1
Step 429000
Ar -1.032239e+00 0.000000e+00 0.000000e+00
1
Step 430000
Ar -8.309374e-01 0.000000e+00 0.000000e+00
1
Step 431000
Ar -1.138755e+00 0.000000e+00 0.000000e+00
1
Step 432000
Ar -1.129822e+00 0.000000e+00 0.000000e+00
1
Step 433000
Ar -1.164872e+00 0.000000e+00 0.000000e+00
1
Step 434000
Ar -1.423025e+00 0.000000e+00 0.000000e+00
1
Step 435000
Ar -1.352825e+00 0.000000e+00 0.000000e+00
1
Step 436000
Ar -1.289571e+00 0.000000e+00 0.000000e+00
1
Step 437000
Ar -1.342453e+00 0.000000e+00 0.000000e+00
1
Step 438000
Ar -1.304501e+00 0.000000e+00 0.000000e+00
1
Step 439000
Ar -1.534606e+00 0.000000e+00 0.000000e+00
1
Step 440000
Ar -1.322960e+00 0.000000e+00 0.000000e+00
1
Step 441000
Ar -1.335453e+00 0.000000e+00 0.000000e+00
1
Step 442000
Ar -1.385855e+00 0.000000e+00 0.000000e+00
1
Step 443000
Ar -1.379743e+00 0.000000e+00 0.000000e+00
1
Step 444000
Ar -1.358894e+00 0.000000e+00 0.000000e+00
1
Step 445000
Ar -1.370182e+00 0.000000e+00 0.000000e+00
1
Step 446000
Ar -1.328678e+00 0.000000e+00 0.000000e+00
1
Step 447000
Ar -9.756662e-01 0.000000e+00 0.000000e+00
1
Step 448000
Ar -1.100773e+00 0.000000e+00 0.000000e+00
1
Step 449000
Ar -1.146601e+00 0.000000e+00 0.000000e+00
1
Step 450000
Ar -8.252281e-01 0.000000e+00 0.000000e+00
1
Step 451000
Ar -1.084961e+00 0.000000e+00 0.000000e+00
1
Step 452000
Ar -9.842197e-01 0.000000e+00 0.000000e+00
1
Step 453000
Ar -8.447873e-01 0.000000e+00 0.000000e+00
1
Step 454000
Ar -9.955244e-01 0.000000e+00 0.000000e+00
1
Step 455000
Ar -9.108073e-01 0.000000e+00 0.000000e+00
1
Step 456000
Ar -8.935944e-01 0.000000e+00 0.000000e+00
1
Step 457000
Ar -9.522976e-01 0.000000e+00 0.000000e+00
1
Step 458000
Ar -9.683577e-01 0.000000e+00 0.000000e+00
1
Step 459000
Ar -9.952250e-01 0.000000e+00 0.000000e+00
1
Step 460000
Ar -1.067576e+00 0.000000e+00 0.000000e+00
1
Step 461000
Ar -1.015440e+00 0.000000e+00 0.000000e+00
1
Step 462000
Ar -1.118492e+00 0.000000e+00 0.000000e+00
1
Step 463000
Ar -1.058305e+00 0.000000e+00 0.000000e+00
1
Step 464000
Ar -1.038154e+00 0.000000e+00 0.000000e+00
1
Step 465000
Ar -1.106326e+00 0.000000e+00 0.000000e+00
1
Step 466000
Ar -1.225214e+00 0.000000e+00 0.000000e+00
1
Step 467000
Ar -1.223869e+00 0.000000e+00 0.000000e+00
1
Step 468000
Ar -1.260652e+00 0.000000e+00 0.000000e+00
1
Step 469000
Ar -1.205522e+00 0.000000e+00 0.000000e+00
1
Step 470000
Ar -1.183660e+00 0.000000e+00 0.000000e+00
1
Step 471000
Ar -1.232680e+00 0.000000e+00 0.000000e+00
1
Step 472000
Ar -1.073209e+00 0.000000e+00 0.000000e+00
1
Step 473000
Ar -1.095437e+00 0.000000e+00 0.000000e+00
1
Step 474000
Ar -1.082970e+00 0.000000e+00 0.000000e+00
1
Step 475000
Ar -1.179046e+00 0.000000e+00 0.000000e+00
1
Step 476000
Ar -1.277227e+00 0.000000e+00 0.000000e+00
1
Step 477000
Ar -1.210317e+00 0.000000e+00 0.000000e+00
1
Step 478000
Ar -9.189759e-01 0.000000e+00 0.000000e+00
1
Step 479000
Ar -9.008053e-01 0.000000e+00 0.000000e+00
1
Step 480000
Ar -9.511605e-01 0.000000e+00 0.000000e+00
1
Step 481000
Ar -9.203255e-01 0.000000e+00 0.000000e+00
1
Step 482000
Ar -9.333540e-01 0.000000e+00 0.000000e+00
1
Step 483000
Ar -8.809593e-01 0.000000e+00 0.000000e+00
1
Step 484000
Ar -8.504451e-01 0.000000e+00 0.000000e+00
1
Step 485000
Ar -1.027716e+00 0.000000e+00 0.000000e+00
1
Step 486000
Ar -8.917643e-01 0.000000e+00 0.000000e+00
1
Step 487000
Ar -9.418978e-01 0.000000e+00 0.000000e+00
1
Step 488000
Ar -9.724557e-01 0.000000e+00 0.000000e+00
1
Step 489000
Ar -9.063819e-01 0.000000e+00 0.000000e+00
1
Step 490000
Ar -1.043531e+00 0.000000e+00 0.000000e+00
1
Step 491000
Ar -1.065086e+00 0.000000e+00 0.000000e+00
1
Step 492000
Ar -8.625433e-01 0.000000e+00 0.000000e+00
1
Step 493000
Ar -7.087388e-02 0.000000e+00 0.000000e+00
1
Step 494000
Ar -2.555876e-01 0.000000e+00 0.000000e+00
1
Step 495000
Ar -2.729379e-01 0.000000e+00 0.000000e+00
1
Step 496000
Ar -2.395387e-01 0.000000e+00 0.000000e+00
1
Step 497000
Ar -2.512935e-01 0.000000e+00 0.000000e+00
1
Step 498000
Ar -1.138254e-01 0.000000e+00 0.000000e+00
1
Step 499000
Ar -2.072737e-01 0.000000e+00 0.000000e+00
1
Step 500000
Ar -1.665714e-01 0.000000e+00 0.000000e+00
1
Step 501000
Ar 5.175892e-02 0.000000e+00 0.000000e+00
1
Step 502000
Ar 1.276840e-01 0.000000e+00 0.000000e+00
1
Step 503000
Ar 1.146022e-01 0.000000e+00 0.000000e+00
1
Step 504000
Ar 1.938303e-01 0.000000e+00 0.000000e+00
1
Step 505000
Ar 8.381088e-02 0.000000e+00 0.000000e+00
1
Step 506000
Ar 1.047439e-01 0.000000e+00 0.000000e+00
1
Step 507000
Ar 1.438098e-02 0.000000e+00 0.000000e+00
1
Step 508000
Ar 2.755218e-02 0.000000e+00 0.000000e+00
1
Step 509000
Ar 2.418368e-01 0.000000e+00 0.000000e+00
1
Step 510000
Ar 2.538876e-01 0.000000e+00 0.000000e+00
1
Step 511000
Ar 2.673748e-01 0.000000e+00 0.000000e+00
1
Step 512000
Ar 2.245765e-01 0.000000e+00 0.000000e+00
1
Step 513000
Ar 2.301906e-01 0.000000e+00 0.000000e+00
1
Step 514000
Ar 2.544495e-01 0.000000e+00 0.000000e+00
1
Step 515000
Ar 4.265787e-01 0.000000e+00 0.000000e+00
1
Step 516000
Ar 4.006781e-01 0.000000e+00 0.000000e+00
1
Step 517000
Ar 3.804220e-01 0.000000e+00 0.000000e+00
1
Step 518000
Ar 5.801223e-01 0.000000e+00 0.000000e+00
1
Step 519000
Ar 1.294979e+00 0.000000e+00 0.000000e+00
1
Step 520000
Ar 1.346462e+00 0.000000e+00 0.000000e+00
1
Step 521000
Ar 1.221375e+00 0.000000e+00 0.000000e+00
1
Step 522000
Ar 1.224387e+00 0.000000e+00 0.000000e+00
1
Step 523000
Ar 1.250318e+00 0.000000e+00 0.000000e+00
1
Step 524000
Ar 1.325865e+00 0.000000e+00 0.000000e+00
1
Step 525000
Ar 1.269966e+00 0.000000e+00 0.000000e+00
1
Step 526000
Ar 1.304530e+00 0.000000e+00 0.000000e+00
1
Step 527000
Ar 1.374922e+00 0.000000e+00 0.000000e+00
1
Step 528000
Ar 1.262999e+00 0.000000e+00 0.000000e+00
1
Step 529000
Ar 1.038838e+00 0.000000e+00 0.000000e+00
1
Step 530000
Ar 1.111384e+00 0.000000e+00 0.000000e+00
1
Step 531000
Ar 1.148173e+00 0.000000e+00 0.000000e+00
1
Step 532000
Ar 1.018533e+00 0.000000e+00 0.000000e+00
1
Step 533000
Ar 1.105303e+00 0.000000e+00 0.000000e+00
1
Step 534000
Ar 1.162303e+00 0.000000e+00 0.000000e+00
1
Step 535000
Ar 1.167192e+00 0.000000e+00 0.000000e+00
1
Step 536000
Ar 1.086101e+00 0.000000e+00 0.000000e+00
1
Step 537000
Ar 1.134935e+00 0.000000e+00 0.000000e+00
1
Step 538000
Ar 1.125382e+00 0.000000e+00 0.000000e+00
1
Step 539000
Ar 1.195011e+00 0.000000e+00 0.000000e+00
1
Step 540000
Ar 1.237455e+00 0.000000e+00 0.000000e+00
1
Step 541000
Ar 1.232870e+00 0.000000e+00 0.000000e+00
1
Step 542000
Ar 1.314038e+00 0.000000e+00 0.000000e+00
1
Step 543000
Ar 1.339135e+00 0.000000e+00 0.000000e+00
1
Step 544000
Ar 1.270675e+00 0.000000e+00 0.000000e+00
1
Step 545000
Ar 1.338838e+00 0.000000e+00 0.000000e+00
1
Step 546000
Ar 1.069221e+00 0.000000e+00 0.000000e+00
1
Step 547000
Ar 9.351627e-01 0.000000e+00 0.000000e+00
1
Step 548000
Ar 8.208490e-01 0.000000e+00 0.000000e+00
1
Step 549000
Ar 8.444128e-01 0.000000e+00 0.000000e+00
1
Step 550000
Ar 9.552048e-01 0.000000e+00 0.000000e+00
1
Step 551000
Ar 5.993587e-01 0.000000e+00 0.000000e+00
1
Step 552000
Ar 8.025635e-01 0.000000e+00 0.000000e+00
1
Step 553000
Ar 7.270422e-01 0.000000e+00 0.000000e+00
1
Step 554000
Ar 7.075549e-01 0.000000e+00 0.000000e+00
1
Step 555000
Ar 6.662506e-01 0.000000e+00 0.000000e+00
1
Step 556000
Ar 1.027884e+00 0.000000e+00 0.000000e+00
1
Step 557000
Ar 1.049042e+00 0.000000e+00 0.000000e+00
1
Step 558000
Ar 9.893259e-01 0.000000e+00 0.000000e+00
1
Step 559000
Ar 9.682998e-01 0.000000e+00 0.000000e+00
1
Step 560000
Ar 1.170700e+00 0.000000e+00 0.000000e+00
1
Step 561000
Ar 1.006965e+00 0.000000e+00 0.000000e+00
1
Step 562000
Ar 1.012088e+00 0.000000e+00 0.000000e+00
1
Step 563000
Ar 9.982018e-01 0.000000e+00 0.000000e+00
1
Step 564000
Ar 8.659576e-01 0.000000e+00 0.000000e+00
1
Step 565000
Ar 8.865545e-01 0.000000e+00 0.000000e+00
1
Step 566000
Ar 9.441688e-01 0.000000e+00 0.000000e+00
1
Step 567000
Ar 6.275939e-01 0.000000e+00 0.000000e+00
1
Step 568000
Ar 6.468105e-01 0.000000e+00 0.000000e+00
1
Step 569000
Ar 6.304725e-01 0.000000e+00 0.000000e+00
1
Step 570000
Ar 6.198601e-01 0.000000e+00 0.000000e+00
1
Step 571000
Ar 6.951077e-01 0.000000e+00 0.000000e+00
1
Step 572000
Ar 5.930375e-01 0.000000e+00 0.000000e+00
1
Step 573000
Ar 7.744033e-01 0.000000e+00 0.000000e+00
1
Step 574000
Ar 7.202183e-01 0.000000e+00 0.000000e+00
1
Step 575000
Ar 8.341913e-01 0.000000e+00 0.000000e+00
1
Step 576000
Ar 7.933999e-01 0.000000e+00 0.000000e+00
1
Step 577000
Ar 8.783123e-01 0.000000e+00 0.000000e+00
1
Step 578000
Ar 8.084369e-01 0.000000e+00 0.000000e+00
1
Step 579000
Ar 8.242001e-01 0.000000e+00 0.000000e+00
1
Step 580000
Ar 7.409407e-01 0.000000e+00 0.000000e+00
1
Step 581000
Ar 6.526281e-01 0.000000e+00 0.000000e+00
1
Step 582000
Ar 7.536271e-01 0.000000e+00 0.000000e+00
1
Step 583000
Ar 7.675079e-01 0.000000e+00 0.000000e+00
1
Step 584000
Ar 6.844207e-01 0.000000e+00 0.000000e+00
1
Step 585000
Ar 7.310488e-01 0.000000e+00 0.000000e+00
1
Step 586000
Ar 9.029725e-01 0.000000e+00 0.000000e+00
1
Step 587000
Ar 9.262583e-01 0.000000e+00 0.000000e+00
1
Step 588000
Ar 6.990739e-01 0.000000e+00 0.000000e+00
1
Step 589000
Ar 8.097071e-01 0.000000e+00 0.000000e+00
1
Step 590000
Ar 9.095711e-01 0.000000e+00 0.000000e+00
1
Step 591000
Ar 1.135204e+00 0.000000e+00 0.000000e+00
1
Step 592000
Ar 1.152757e+00 0.000000e+00 0.000000e+00
1
Step 593000
Ar 1.292370e+00 0.000000e+00 0.000000e+00
1
Step 594000
Ar 1.210660e+00 0.000000e+00 0.000000e+00
1
Step 595000
Ar 1.205862e+00 0.000000e+00 0.000000e+00
1
Step 596000
Ar 1.070886e+00 0.000000e+00 0.000000e+00
1
Step 597000
Ar 1.061729e+00 0.000000e+00 0.000000e+00
1
Step 598000
Ar 9.699297e-01 0.000000e+00 0.000000e+00
1
Step 599000
Ar 1.027038e+00 0.000000e+00 0.000000e+00
1
Step 600000
Ar 1.096494e+00 0.000000e+00 0.000000e+00
1
Step 601000
Ar 1.115266e+00 0.000000e+00 0.000000e+00
1
Step 602000
Ar 1.185341e+00 0.000000e+00 0.000000e+00
1
Step 603000
Ar 1.050404e+00 0.000000e+00 0.000000e+00
1
Step 604000
Ar 1.034082e+00 0.000000e+00 0.000000e+00
1
Step 605000
Ar 1.159707e+00 0.000000e+00 0.000000e+00
1
Step 606000
Ar 1.093235e+00 0.000000e+00 0.000000e+00
1
Step 607000
Ar 1.084866e+00 0.000000e+00 0.000000e+00
1
Step 608000
Ar 1.078283e+00 0.000000e+00 0.000000e+00
1
Step 609000
Ar 1.323177e+00 0.000000e+00 0.000000e+00
1
Step 610000
Ar 1.105393e+00 0.000000e+00 0.000000e+00
1
Step 611000
Ar 1.238808e+00 0.000000e+00 0.000000e+00
1
Step 612000
Ar 1.251790e+00 0.000000e+00 0.000000e+00
1
Step 613000
Ar 1.305901e+00 0.000000e+00 0.000000e+00
1
Step 614000
Ar 1.278551e+00 0.000000e+00 0.000000e+00
1
Step 615000
Ar 1.280946e+00 0.000000e+00 0.000000e+00
1
Step 616000
Ar 1.214253e+00 0.000000e+00 0.000000e+00
1
Step 617000
Ar 1.259547e+00 0.000000e+00 0.000000e+00
1
Step 618000
Ar 1.329000e+00 0.000000e+00 0.000000e+00
1
Step 619000
Ar 1.365351e+00 0.000000e+00 0.000000e+00
1
Step 620000
Ar 1.393849e+00 0.000000e+00 0.000000e+00
1
Step 621000
Ar 1.427948e+00 0.000000e+00 0.000000e+00
1
Step 622000
Ar 1.452839e+00 0.000000e+00 0.000000e+00
1
Step 623000
Ar 1.388559e+00 0.000000e+00 0.000000e+00
1
Step 624000
Ar 1.353351e+00 0.000000e+00 0.000000e+00
1
Step 625000
Ar 1.367837e+00 0.000000e+00 0.000000e+00
1
Step 626000
Ar 1.407003e+00 0.000000e+00 0.000000e+00
1
Step 627000
Ar 1.415680e+00 0.000000e+00 0.000000e+00
1
Step 628000
Ar 1.470124e+00 0.000000e+00 0.000000e+00
1
Step 629000
Ar 1.438598e+00 0.000000e+00 0.000000e+00
1
Step 630000
Ar 1.401439e+00 0.000000e+00 0.000000e+00
1
Step 631000
Ar 1.420715e+00 0.000000e+00 0.000000e+00
1
Step 632000
Ar 1.460688e+00 0.000000e+00 0.000000e+00
1
Step 633000
Ar 1.430207e+00 0.000000e+00 0.000000e+00
1
Step 634000
Ar 1.496953e+00 0.000000e+00 0.000000e+00
1
Step 635000
Ar 1.317823e+00 0.000000e+00 0.000000e+00
1
Step 636000
Ar 1.294806e+00 0.000000e+00 0.000000e+00
1
Step 637000
Ar 1.309140e+00 0.000000e+00 0.000000e+00
1
Step 638000
Ar 1.379594e+00 0.000000e+00 0.000000e+00
1
Step 639000
Ar 1.144971e+00 0.000000e+00 0.000000e+00
1
Step 640000
Ar 1.179152e+00 0.000000e+00 0.000000e+00
1
Step 641000
Ar 1.201498e+00 0.000000e+00 0.000000e+00
1
Step 642000
Ar 1.099676e+00 0.000000e+00 0.000000e+00
1
Step 643000
Ar 1.137868e+00 0.000000e+00 0.000000e+00
1
Step 644000
Ar 1.174145e+00 0.000000e+00 0.000000e+00
1
Step 645000
Ar 1.225348e+00 0.000000e+00 0.000000e+00
1
Step 646000
Ar 9.310019e-01 0.000000e+00 0.000000e+00
1
Step 647000
Ar 9.536119e-01 0.000000e+00 0.000000e+00
1
Step 648000
Ar 9.390810e-01 0.000000e+00 0.000000e+00
1
Step 649000
Ar 9.879596e-01 0.000000e+00 0.000000e+00
1
Step 650000