1
Step 120000
Ar 1.147346e+00 0.000000e+00 0.000000e+00
1
Step 121000
Ar 1.000184e+00 0.000000e+00 0.000000e+00
1
Step 122000
Ar 9.563257e-01 0.000000e+00 0.000000e+00
1
Step 123000
Ar 9.337211e-01 0.000000e+00 0.000000e+00
1
Step 124000
Ar 9.718145e-01 0.000000e+00 0.000000e+00
1
Step 125000
Ar 9.156599e-01 0.000000e+00 0.000000e+00
1
Step 126000
Ar 1.274780e+00 0.000000e+00 0.000000e+00
1
Step 127000
Ar 9.879962e-01 0.000000e+00 0.000000e+00
1
Step 128000
Ar 7.853991e-01 0.000000e+00 0.000000e+00
1
Step 129000
Ar 7.597907e-01 0.000000e+00 0.000000e+00
1
Step 130000
Ar 9.783268e-01 0.000000e+00 0.000000e+00
1
Step 131000
Ar 1.047754e+00 0.000000e+00 0.000000e+00
1
Step 132000
Ar 1.245253e+00 0.000000e+00 0.000000e+00
1
Step 133000
Ar 1.086902e+00 0.000000e+00 0.000000e+00
1
Step 134000
Ar 1.017697e+00 0.000000e+00 0.000000e+00
1
Step 135000
Ar 1.041961e+00 0.000000e+00 0.000000e+00
1
Step 136000
Ar 1.027516e+00 0.000000e+00 0.000000e+00
1
Step 137000
Ar 1.002181e+00 0.000000e+00 0.000000e+00
1
Step 138000
Ar 1.208874e+00 0.000000e+00 0.000000e+00
1
Step 139000
Ar 1.149330e+00 0.000000e+00 0.000000e+00
1
Step 140000
Ar 1.173966e+00 0.000000e+00 0.000000e+00
1
Step 141000
Ar 1.196926e+00 0.000000e+00 0.000000e+00
1
Step 142000
Ar 1.102369e+00 0.000000e+00 0.000000e+00
1
Step 143000
Ar 1.135342e+00 0.000000e+00 0.000000e+00
1
Step 144000
Ar 1.059979e+00 0.000000e+00 0.000000e+00
1
Step 145000
Ar 1.071497e+00 0.000000e+00 0.000000e+00
1
Step 146000
Ar 1.161009e+00 0.000000e+00 0.000000e+00
1
Step 147000
Ar 1.118153e+00 0.000000e+00 0.000000e+00
1
Step 148000
Ar 1.267097e+00 0.000000e+00 0.000000e+00
1
Step 149000
Ar 1.126528e+00 0.000000e+00 0.000000e+00
1
Step 150000
Ar 1.189146e+00 0.000000e+00 0.000000e+00
1
Step 151000
Ar 1.092359e+00 0.000000e+00 0.000000e+00
1
Step 152000
Ar 1.109283e+00 0.000000e+00 0.000000e+00
1
Step 153000
Ar 1.181770e+00 0.000000e+00 0.000000e+00
1
Step 154000
Ar 1.221757e+00 0.000000e+00 0.000000e+00
1
Step 155000
Ar 1.232858e+00 0.000000e+00 0.000000e+00
1
Step 156000
Ar 1.079094e+00 0.000000e+00 0.000000e+00
1
Step 157000
Ar 1.053340e+00 0.000000e+00 0.000000e+00
1
Step 158000
Ar 8.572001e-01 0.000000e+00 0.000000e+00
1
Step 159000
Ar 8.451462e-01 0.000000e+00 0.000000e+00
1
Step 160000
Ar 7.728706e-01 0.000000e+00 0.000000e+00
1
Step 161000
Ar 4.085907e-01 0.000000e+00 0.000000e+00
1
Step 162000
Ar 7.301449e-01 0.000000e+00 0.000000e+00
1
Step 163000
Ar 8.145922e-01 0.000000e+00 0.000000e+00
1
Step 164000
Ar 7.524971e-01 0.000000e+00 0.000000e+00
1
Step 165000
Ar 7.091927e-01 0.000000e+00 0.000000e+00
1
Step 166000
Ar 6.263666e-01 0.000000e+00 0.000000e+00
1
Step 167000
Ar 8.859651e-01 0.000000e+00 0.000000e+00
1
Step 168000
Ar 9.473325e-01 0.000000e+00 0.000000e+00
1
Step 169000
Ar 8.293349e-01 0.000000e+00 0.000000e+00
1
Step 170000
Ar 8.656317e-01 0.000000e+00 0.000000e+00
1
Step 171000
Ar 8.983012e-01 0.000000e+00 0.000000e+00
1
Step 172000
Ar 9.633268e-01 0.000000e+00 0.000000e+00
1
Step 173000
Ar 8.325769e-01 0.000000e+00 0.000000e+00
1
Step 174000
Ar 8.675081e-01 0.000000e+00 0.000000e+00
1
Step 175000
Ar 9.043199e-01 0.000000e+00 0.000000e+00
1
Step 176000
Ar 8.718918e-01 0.000000e+00 0.000000e+00
1
Step 177000
Ar 9.253916e-01 0.000000e+00 0.000000e+00
1
Step 178000
Ar 9.168571e-01 0.000000e+00 0.000000e+00
1
Step 179000
Ar 1.294879e+00 0.000000e+00 0.000000e+00
1
Step 180000
Ar 1.281632e+00 0.000000e+00 0.000000e+00
1
Step 181000
Ar 1.313056e+00 0.000000e+00 0.000000e+00
1
Step 182000
Ar 1.149217e+00 0.000000e+00 0.000000e+00
1
Step 183000
Ar 9.446971e-01 0.000000e+00 0.000000e+00
1
Step 184000
Ar 9.828048e-01 0.000000e+00 0.000000e+00
1
Step 185000
Ar 1.010200e+00 0.000000e+00 0.000000e+00
1
Step 186000
Ar 1.036040e+00 0.000000e+00 0.000000e+00
1
Step 187000
Ar 1.023872e+00 0.000000e+00 0.000000e+00
1
Step 188000
Ar 8.843553e-01 0.000000e+00 0.000000e+00
1
Step 189000
Ar 1.163414e+00 0.000000e+00 0.000000e+00
1
Step 190000
Ar 1.094494e+00 0.000000e+00 0.000000e+00
1
Step 191000
Ar 1.255451e+00 0.000000e+00 0.000000e+00
1
Step 192000
Ar 1.157698e+00 0.000000e+00 0.000000e+00
1
Step 193000
Ar 9.596506e-01 0.000000e+00 0.000000e+00
1
Step 194000
Ar 9.237412e-01 0.000000e+00 0.000000e+00
1
Step 195000
Ar 7.978062e-01 0.000000e+00 0.000000e+00
1
Step 196000
Ar 8.059895e-01 0.000000e+00 0.000000e+00
1
Step 197000
Ar 5.569898e-01 0.000000e+00 0.000000e+00
1
Step 198000
Ar 4.774203e-01 0.000000e+00 0.000000e+00
1
Step 199000
Ar 5.452429e-01 0.000000e+00 0.000000e+00
1
Step 200000
Ar 7.391032e-01 0.000000e+00 0.000000e+00
1
Step 201000
Ar 6.697957e-01 0.000000e+00 0.000000e+00
1
Step 202000
Ar 6.943518e-01 0.000000e+00 0.000000e+00
1
Step 203000
Ar 6.151189e-01 0.000000e+00 0.000000e+00
1
Step 204000
Ar 5.781012e-01 0.000000e+00 0.000000e+00
1
Step 205000
Ar 6.853053e-01 0.000000e+00 0.000000e+00
1
Step 206000
Ar 5.929221e-01 0.000000e+00 0.000000e+00
1
Step 207000
Ar 6.384956e-01 0.000000e+00 0.000000e+00
1
Step 208000
Ar 5.982885e-01 0.000000e+00 0.000000e+00
1
Step 209000
Ar 7.825188e-01 0.000000e+00 0.000000e+00
1
Step 210000
Ar 7.185669e-01 0.000000e+00 0.000000e+00
1
Step 211000
Ar 6.502729e-01 0.000000e+00 0.000000e+00
1
Step 212000
Ar 6.515716e-01 0.000000e+00 0.000000e+00
1
Step 213000
Ar 6.800735e-01 0.000000e+00 0.000000e+00
1
Step 214000
Ar 5.136449e-01 0.000000e+00 0.000000e+00
1
Step 215000
Ar 4.900277e-01 0.000000e+00 0.000000e+00
1
Step 216000
Ar 5.287435e-01 0.000000e+00 0.000000e+00
1
Step 217000
Ar 5.384801e-01 0.000000e+00 0.000000e+00
1
Step 218000
Ar 5.011320e-01 0.000000e+00 0.000000e+00
1
Step 219000
Ar 5.223306e-01 0.000000e+00 0.000000e+00
1
Step 220000
Ar 4.434976e-01 0.000000e+00 0.000000e+00
1
Step 221000
Ar -1.027062e+00 0.000000e+00 0.000000e+00
1
Step 222000
Ar -9.486006e-01 0.000000e+00 0.000000e+00
1
Step 223000
Ar -9.305996e-01 0.000000e+00 0.000000e+00
1
Step 224000
Ar -1.004949e+00 0.000000e+00 0.000000e+00
1
Step 225000
Ar -9.860046e-01 0.000000e+00 0.000000e+00
1
Step 226000
Ar -9.652598e-01 0.000000e+00 0.000000e+00
1
Step 227000
Ar -9.991427e-01 0.000000e+00 0.000000e+00
1
Step 228000
Ar -1.168849e+00 0.000000e+00 0.000000e+00
1
Step 229000
Ar -1.108733e+00 0.000000e+00 0.000000e+00
1
Step 230000
Ar -1.133892e+00 0.000000e+00 0.000000e+00
1
Step 231000
Ar -1.147861e+00 0.000000e+00 0.000000e+00
1
Step 232000
Ar -1.070786e+00 0.000000e+00 0.000000e+00
1
Step 233000
Ar -1.095862e+00 0.000000e+00 0.000000e+00
1
Step 234000
Ar -1.014511e+00 0.000000e+00 0.000000e+00
1
Step 235000
Ar -1.047516e+00 0.000000e+00 0.000000e+00
1
Step 236000
Ar -1.061964e+00 0.000000e+00 0.000000e+00
1
Step 237000
Ar -1.039297e+00 0.000000e+00 0.000000e+00
1
Step 238000
Ar -1.253675e+00 0.000000e+00 0.000000e+00
1
Step 239000
Ar -1.225857e+00 0.000000e+00 0.000000e+00
1
Step 240000
Ar -1.200055e+00 0.000000e+00 0.000000e+00
1
Step 241000
Ar -1.081897e+00 0.000000e+00 0.000000e+00
1
Step 242000
Ar -1.125085e+00 0.000000e+00 0.000000e+00
1
Step 243000
Ar -1.085534e+00 0.000000e+00 0.000000e+00
1
Step 244000
Ar -1.289956e+00 0.000000e+00 0.000000e+00
1
Step 245000
Ar -1.306648e+00 0.000000e+00 0.000000e+00
1
Step 246000
Ar -1.335630e+00 0.000000e+00 0.000000e+00
1
Step 247000
Ar -9.194238e-01 0.000000e+00 0.000000e+00
1
Step 248000
Ar -8.784424e-01 0.000000e+00 0.000000e+00
1
Step 249000
Ar -8.405270e-01 0.000000e+00 0.000000e+00
1
Step 250000
Ar -7.311427e-01 0.000000e+00 0.000000e+00
1
Step 251000
Ar -7.759349e-01 0.000000e+00 0.000000e+00
1
Step 252000
Ar -7.152436e-01 0.000000e+00 0.000000e+00
1
Step 253000
Ar -4.062096e-01 0.000000e+00 0.000000e+00
1
Step 254000
Ar -3.737417e-01 0.000000e+00 0.000000e+00
1
Step 255000
Ar -6.642612e-01 0.000000e+00 0.000000e+00
1
Step 256000
Ar -5.633103e-01 0.000000e+00 0.000000e+00
1
Step 257000
Ar -6.869021e-01 0.000000e+00 0.000000e+00
1
Step 258000
Ar -7.537838e-01 0.000000e+00 0.000000e+00
1
Step 259000
Ar -9.562708e-01 0.000000e+00 0.000000e+00
1
Step 260000
Ar -1.053261e+00 0.000000e+00 0.000000e+00
1
Step 261000
Ar -8.670507e-01 0.000000e+00 0.000000e+00
1
Step 262000
Ar -8.535062e-01 0.000000e+00 0.000000e+00
1
Step 263000
Ar -9.091999e-01 0.000000e+00 0.000000e+00
1
Step 264000
Ar -9.442547e-01 0.000000e+00 0.000000e+00
1
Step 265000
Ar -7.392772e-01 0.000000e+00 0.000000e+00
1
Step 266000
Ar -8.992505e-01 0.000000e+00 0.000000e+00
1
Step 267000
Ar -8.220072e-01 0.000000e+00 0.000000e+00
1
Step 268000
Ar -8.088185e-01 0.000000e+00 0.000000e+00
1
Step 269000
Ar -8.275863e-01 0.000000e+00 0.000000e+00
1
Step 270000
Ar -1.032946e+00 0.000000e+00 0.000000e+00
1
Step 271000
Ar -9.829057e-01 0.000000e+00 0.000000e+00
1
Step 272000
Ar -9.730728e-01 0.000000e+00 0.000000e+00
1
Step 273000
Ar -9.600665e-01 0.000000e+00 0.000000e+00
1
Step 274000
Ar -1.320882e+00 0.000000e+00 0.000000e+00
1
Step 275000
Ar -1.217550e+00 0.000000e+00 0.000000e+00
1
Step 276000
Ar -1.177415e+00 0.000000e+00 0.000000e+00
1
Step 277000
Ar -1.190478e+00 0.000000e+00 0.000000e+00
1
Step 278000
Ar -1.161378e+00 0.000000e+00 0.000000e+00
1
Step 279000
Ar -1.138931e+00 0.000000e+00 0.000000e+00
1
Step 280000
Ar -1.267671e+00 0.000000e+00 0.000000e+00
1
Step 281000
Ar -1.212895e+00 0.000000e+00 0.000000e+00
1
Step 282000
Ar -1.154617e+00 0.000000e+00 0.000000e+00
1
Step 283000
Ar -1.175837e+00 0.000000e+00 0.000000e+00
1
Step 284000
Ar -1.242585e+00 0.000000e+00 0.000000e+00
1
Step 285000
Ar -1.276892e+00 0.000000e+00 0.000000e+00
1
Step 286000
Ar -1.349788e+00 0.000000e+00 0.000000e+00
1
Step 287000
Ar -1.392867e+00 0.000000e+00 0.000000e+00
1
Step 288000
Ar -1.238405e+00 0.000000e+00 0.000000e+00
1
Step 289000
Ar -8.625227e-01 0.000000e+00 0.000000e+00
1
Step 290000
Ar -8.495250e-01 0.000000e+00 0.000000e+00
1
Step 291000
Ar -7.630069e-01 0.000000e+00 0.000000e+00
1
Step 292000
Ar -6.464873e-01 0.000000e+00 0.000000e+00
1
Step 293000
Ar -6.097865e-01 0.000000e+00 0.000000e+00
1
Step 294000
Ar -7.867450e-01 0.000000e+00 0.000000e+00
1
Step 295000
Ar -7.950987e-01 0.000000e+00 0.000000e+00
1
Step 296000
Ar -7.060704e-01 0.000000e+00 0.000000e+00
1
Step 297000
Ar -8.031151e-01 0.000000e+00 0.000000e+00
1
Step 298000
Ar -6.191017e-01 0.000000e+00 0.000000e+00
1
Step 299000
Ar -9.097519e-01 0.000000e+00 0.000000e+00
1
Step 300000
Ar -8.408345e-01 0.000000e+00 0.000000e+00
1
Step 301000
Ar -6.351654e-01 0.000000e+00 0.000000e+00
1
Step 302000
Ar -6.765095e-01 0.000000e+00 0.000000e+00
1
Step 303000
Ar -7.195463e-01 0.000000e+00 0.000000e+00
1
Step 304000
Ar -7.757912e-01 0.000000e+00 0.000000e+00
1
Step 305000
Ar -5.443257e-01 0.000000e+00 0.000000e+00
1
Step 306000
Ar -5.979243e-01 0.000000e+00 0.000000e+00
1
Step 307000
Ar -5.148203e-01 0.000000e+00 0.000000e+00
1
Step 308000
Ar -5.644347e-01 0.000000e+00 0.000000e+00
1
Step 309000
Ar -5.300088e-01 0.000000e+00 0.000000e+00
1
Step 310000
Ar -4.936247e-01 0.000000e+00 0.000000e+00
1
Step 311000
Ar -5.259125e-01 0.000000e+00 0.000000e+00
1
Step 312000
Ar -6.959578e-01 0.000000e+00 0.000000e+00
1
Step 313000
Ar -5.783728e-01 0.000000e+00 0.000000e+00
1
Step 314000
Ar -5.861830e-01 0.000000e+00 0.000000e+00
1
Step 315000
Ar -4.771332e-01 0.000000e+00 0.000000e+00
1
Step 316000
Ar -4.598192e-01 0.000000e+00 0.000000e+00
1
Step 317000
Ar 3.047570e-01 0.000000e+00 0.000000e+00
1
Step 318000
Ar 3.309324e-01 0.000000e+00 0.000000e+00
1
Step 319000
Ar 3.097816e-01 0.000000e+00 0.000000e+00
1
Step 320000
Ar 4.244706e-01 0.000000e+00 0.000000e+00
1
Step 321000
Ar -3.391731e-01 0.000000e+00 0.000000e+00
1
Step 322000
Ar -7.917235e-02 0.000000e+00 0.000000e+00
1
Step 323000
Ar -3.279935e-01 0.000000e+00 0.000000e+00
1
Step 324000
Ar -2.575010e-01 0.000000e+00 0.000000e+00
1
Step 325000
Ar -4.343359e-01 0.000000e+00 0.000000e+00
1
Step 326000
Ar -5.018427e-01 0.000000e+00 0.000000e+00
1
Step 327000
Ar -4.423524e-01 0.000000e+00 0.000000e+00
1
Step 328000
Ar -4.549751e-01 0.000000e+00 0.000000e+00
1
Step 329000
Ar -3.545309e-01 0.000000e+00 0.000000e+00
1
Step 330000
Ar -4.237311e-01 0.000000e+00 0.000000e+00
1
Step 331000
Ar -3.654903e-01 0.000000e+00 0.000000e+00
1
Step 332000
Ar -3.925353e-01 0.000000e+00 0.000000e+00
1
Step 333000
Ar -4.188665e-01 0.000000e+00 0.000000e+00
1
Step 334000
Ar -2.771651e-01 0.000000e+00 0.000000e+00
1
Step 335000
Ar -3.120373e-01 0.000000e+00 0.000000e+00
1
Step 336000
Ar 2.798760e-01 0.000000e+00 0.000000e+00
1
Step 337000
Ar -6.929305e-02 0.000000e+00 0.000000e+00
1
Step 338000
Ar 4.315148e-02 0.000000e+00 0.000000e+00
1
Step 339000
Ar -3.919781e-02 0.000000e+00 0.000000e+00
1
Step 340000
Ar -1.768871e-02 0.000000e+00 0.000000e+00
1
Step 341000
Ar -5.716506e-02 0.000000e+00 0.000000e+00
1
Step 342000
Ar 2.616772e-01 0.000000e+00 0.000000e+00
1
Step 343000
Ar 1.495365e-01 0.000000e+00 0.000000e+00
1
Step 344000
Ar 1.107861e-02 0.000000e+00 0.000000e+00
1
Step 345000
Ar 1.098138e-01 0.000000e+00 0.000000e+00
1
Step 346000
Ar 1.276729e-01 0.000000e+00 0.000000e+00
1
Step 347000
Ar 1.002334e-01 0.000000e+00 0.000000e+00
1
Step 348000
Ar 1.950731e-01 0.000000e+00 0.000000e+00
1
Step 349000
Ar 1.667036e-01 0.000000e+00 0.000000e+00
1
Step 350000
Ar 2.189146e-01 0.000000e+00 0.000000e+00
1
Step 351000
Ar 2.330101e-01 0.000000e+00 0.000000e+00
1
Step 352000
Ar 2.589124e-01 0.000000e+00 0.000000e+00
1
Step 353000
Ar 1.817160e-01 0.000000e+00 0.000000e+00
1
Step 354000
Ar 1.423672e-01 0.000000e+00 0.000000e+00
1
Step 355000
Ar -1.779842e-01 0.000000e+00 0.000000e+00
1
Step 356000
Ar -2.401441e-01 0.000000e+00 0.000000e+00
1
Step 357000
Ar -1.955350e-01 0.000000e+00 0.000000e+00
1
Step 358000
Ar -2.094451e-01 0.000000e+00 0.000000e+00
1
Step 359000
Ar -9.857726e-02 0.000000e+00 0.000000e+00
1
Step 360000
Ar -2.886224e-01 0.000000e+00 0.000000e+00
1
Step 361000
Ar -2.656165e-01 0.000000e+00 0.000000e+00
1
Step 362000
Ar -3.040147e-01 0.000000e+00 0.000000e+00
1
Step 363000
Ar -2.990317e-01 0.000000e+00 0.000000e+00
1
Step 364000
Ar -1.873209e-01 0.000000e+00 0.000000e+00
1
Step 365000
Ar -1.660606e-01 0.000000e+00 0.000000e+00
1
Step 366000
Ar -1.244542e-01 0.000000e+00 0.000000e+00
1
Step 367000
Ar -1.597528e-01 0.000000e+00 0.000000e+00
1
Step 368000
Ar 2.667092e-02 0.000000e+00 0.000000e+00
1
Step 369000
Ar -1.475469e-01 0.000000e+00 0.000000e+00
1
Step 370000
Ar -1.234399e-01 0.000000e+00 0.000000e+00
1
Step 371000
Ar -4.974747e-02 0.000000e+00 0.000000e+00
1
Step 372000
Ar 1.459405e-01 0.000000e+00 0.000000e+00
1
Step 373000
Ar 4.353619e-01 0.000000e+00 0.000000e+00
1
Step 374000
Ar 3.963599e-01 0.000000e+00 0.000000e+00
1
Step 375000
Ar 3.525376e-01 0.000000e+00 0.000000e+00
1
Step 376000
Ar 3.762646e-01 0.000000e+00 0.000000e+00
1
Step 377000
Ar 3.623328e-01 0.000000e+00 0.000000e+00
1
Step 378000
Ar 3.860467e-01 0.000000e+00 0.000000e+00
1
Step 379000
Ar 4.628905e-01 0.000000e+00 0.000000e+00
1
Step 380000
Ar 4.515635e-01 0.000000e+00 0.000000e+00
1
Step 381000
Ar 1.068229e+00 0.000000e+00 0.000000e+00
1
Step 382000
Ar 1.116278e+00 0.000000e+00 0.000000e+00
1
Step 383000
Ar 1.106565e+00 0.000000e+00 0.000000e+00
1
Step 384000
Ar 7.458775e-01 0.000000e+00 0.000000e+00
1
Step 385000
Ar 7.654076e-01 0.000000e+00 0.000000e+00
1
Step 386000
Ar 8.373072e-01 0.000000e+00 0.000000e+00
1
Step 387000
Ar 8.586806e-01 0.000000e+00 0.000000e+00
1
Step 388000
Ar 7.017826e-01 0.000000e+00 0.000000e+00
1
Step 389000
Ar 7.982319e-01 0.000000e+00 0.000000e+00
1
Step 390000
Ar 7.234405e-01 0.000000e+00 0.000000e+00
1
Step 391000
Ar 8.195683e-01 0.000000e+00 0.000000e+00
1
Step 392000
Ar 6.607379e-01 0.000000e+00 0.000000e+00
1
Step 393000
Ar 7.492743e-01 0.000000e+00 0.000000e+00
1
Step 394000
Ar 1.323709e+00 0.000000e+00 0.000000e+00
1
Step 395000
Ar 1.303217e+00 0.000000e+00 0.000000e+00
1
Step 396000
Ar 1.339332e+00 0.000000e+00 0.000000e+00
1
Step 397000
Ar 1.366273e+00 0.000000e+00 0.000000e+00
1
Step 398000
Ar 1.391424e+00 0.000000e+00 0.000000e+00
1
Step 399000
Ar 1.440258e+00 0.000000e+00 0.000000e+00
1
Step 400000
Ar 1.377139e+00 0.000000e+00 0.000000e+00
1
Step 401000
Ar 1.352412e+00 0.000000e+00 0.000000e+00
1
Step 402000
Ar 1.240537e+00 0.000000e+00 0.000000e+00
1
Step 403000
Ar 1.322727e+00 0.000000e+00 0.000000e+00
1
Step 404000
Ar 1.173675e+00 0.000000e+00 0.000000e+00
1
Step 405000
Ar 1.221978e+00 0.000000e+00 0.000000e+00
1
Step 406000
Ar 1.204257e+00 0.000000e+00 0.000000e+00
1
Step 407000
Ar 1.184930e+00 0.000000e+00 0.000000e+00
1
Step 408000
Ar 6.714728e-01 0.000000e+00 0.000000e+00
1
Step 409000
Ar 4.726193e-01 0.000000e+00 0.000000e+00
1
Step 410000
Ar 4.280319e-01 0.000000e+00 0.000000e+00
1
Step 411000
Ar 5.837280e-01 0.000000e+00 0.000000e+00
1
Step 412000
Ar 6.068337e-01 0.000000e+00 0.000000e+00
1
Step 413000
Ar 6.197295e-01 0.000000e+00 0.000000e+00
1
Step 414000
Ar 6.325418e-01 0.000000e+00 0.000000e+00
1
Step 415000
Ar 6.103958e-01 0.000000e+00 0.000000e+00
1
Step 416000
Ar 5.668491e-01 0.000000e+00 0.000000e+00
1
Step 417000
Ar 5.511415e-01 0.000000e+00 0.000000e+00
1
Step 418000
Ar 7.404279e-01 0.000000e+00 0.000000e+00
1
Step 419000
Ar 3.434096e-01 0.000000e+00 0.000000e+00
1
Step 420000
Ar 3.220685e-01 0.000000e+00 0.000000e+00
1
Step 421000
Ar 4.000992e-01 0.000000e+00 0.000000e+00
1
Step 422000
Ar 7.254886e-01 0.000000e+00 0.000000e+00
1
Step 423000
Ar 8.481684e-01 0.000000e+00 0.000000e+00
1
Step 424000
Ar 8.194602e-01 0.000000e+00 0.000000e+00
1
Step 425000
Ar 9.950625e-01 0.000000e+00 0.000000e+00
1
Step 426000
Ar 9.323429e-01 0.000000e+00 0.000000e+00
1
Step 427000
Ar 9.506386e-01 0.000000e+00 0.000000e+00
1
Step 428000
Ar 1.043676e+00 0.000000e+00 0.000000e+00
1
Step 429000
Ar 1.079510e+00 0.000000e+00 0.000000e+00
1
Step 430000
Ar 1.054440e+00 0.000000e+00 0.000000e+00
1
Step 431000
Ar 1.066912e+00 0.000000e+00 0.000000e+00
1
Step 432000
Ar 1.139534e+00 0.000000e+00 0.000000e+00
1
Step 433000
Ar 1.128716e+00 0.000000e+00 0.000000e+00
1
Step 434000
Ar 1.093189e+00 0.000000e+00 0.000000e+00
1
Step 435000
Ar 7.159135e-01 0.000000e+00 0.000000e+00
1
Step 436000
Ar 6.533007e-01 0.000000e+00 0.000000e+00
1
Step 437000
Ar 6.824761e-01 0.000000e+00 0.000000e+00
1
Step 438000
Ar 1.252325e+00 0.000000e+00 0.000000e+00
1
Step 439000
Ar 1.402234e+00 0.000000e+00 0.000000e+00
1
Step 440000
Ar 1.417048e+00 0.000000e+00 0.000000e+00
1
Step 441000
Ar 1.145130e+00 0.000000e+00 0.000000e+00
1
Step 442000
Ar 1.341460e+00 0.000000e+00 0.000000e+00
1
Step 443000
Ar 1.419270e+00 0.000000e+00 0.000000e+00
1
Step 444000
Ar 1.448874e+00 0.000000e+00 0.000000e+00
1
Step 445000
Ar 1.486611e+00 0.000000e+00 0.000000e+00
1
Step 446000
Ar 1.469143e+00 0.000000e+00 0.000000e+00
1
Step 447000
Ar 1.430586e+00 0.000000e+00 0.000000e+00
1
Step 448000
Ar 1.230791e+00 0.000000e+00 0.000000e+00
1
Step 449000
Ar 1.300544e+00 0.000000e+00 0.000000e+00
1
Step 450000
Ar 1.262702e+00 0.000000e+00 0.000000e+00
1
Step 451000
Ar 1.289601e+00 0.000000e+00 0.000000e+00
1
Step 452000
Ar 1.358930e+00 0.000000e+00 0.000000e+00
1
Step 453000
Ar 9.711133e-01 0.000000e+00 0.000000e+00
1
Step 454000
Ar 9.658641e-01 0.000000e+00 0.000000e+00
1
Step 455000
Ar 1.008034e+00 0.000000e+00 0.000000e+00
1
Step 456000
Ar 1.000379e+00 0.000000e+00 0.000000e+00
1
Step 457000
Ar 1.212927e+00 0.000000e+00 0.000000e+00
1
Step 458000
Ar 1.039409e+00 0.000000e+00 0.000000e+00
1
Step 459000
Ar 8.246228e-01 0.000000e+00 0.000000e+00
1
Step 460000
Ar 9.759072e-01 0.000000e+00 0.000000e+00
1
Step 461000
Ar 6.588533e-01 0.000000e+00 0.000000e+00
1
Step 462000
Ar 9.074250e-01 0.000000e+00 0.000000e+00
1
Step 463000
Ar 9.416344e-01 0.000000e+00 0.000000e+00
1
Step 464000
Ar 8.902766e-01 0.000000e+00 0.000000e+00
1
Step 465000
Ar 8.481050e-01 0.000000e+00 0.000000e+00
1
Step 466000
Ar 8.996074e-01 0.000000e+00 0.000000e+00
1
Step 467000
Ar 8.343588e-01 0.000000e+00 0.000000e+00
1
Step 468000
Ar 7.577615e-01 0.000000e+00 0.000000e+00
1
Step 469000
Ar 7.750679e-01 0.000000e+00 0.000000e+00
1
Step 470000
Ar 7.949290e-01 0.000000e+00 0.000000e+00
1
Step 471000
Ar 7.709548e-01 0.000000e+00 0.000000e+00
1
Step 472000
Ar 6.931894e-01 0.000000e+00 0.000000e+00
1
Step 473000
Ar 8.123931e-01 0.000000e+00 0.000000e+00
1
Step 474000
Ar 7.080823e-01 0.000000e+00 0.000000e+00
1
Step 475000
Ar 8.767366e-01 0.000000e+00 0.000000e+00
1
Step 476000
Ar 9.068783e-01 0.000000e+00 0.000000e+00
1
Step 477000
Ar 9.250026e-01 0.000000e+00 0.000000e+00
1
Step 478000
Ar 1.495711e+00 0.000000e+00 0.000000e+00
1
Step 479000
Ar 1.017032e+00 0.000000e+00 0.000000e+00
1
Step 480000
Ar 1.029188e+00 0.000000e+00 0.000000e+00
1
Step 481000
Ar 1.026408e+00 0.000000e+00 0.000000e+00
1
Step 482000
Ar 9.907219e-01 0.000000e+00 0.000000e+00
1
Step 483000
Ar 9.865716e-01 0.000000e+00 0.000000e+00
1
Step 484000
Ar 1.014519e+00 0.000000e+00 0.000000e+00
1
Step 485000
Ar 9.320106e-01 0.000000e+00 0.000000e+00
1
Step 486000
Ar 7.330076e-01 0.000000e+00 0.000000e+00
1
Step 487000
Ar 9.577020e-01 0.000000e+00 0.000000e+00
1
Step 488000
Ar 1.281640e+00 0.000000e+00 0.000000e+00
1
Step 489000
Ar 1.410534e+00 0.000000e+00 0.000000e+00
1
Step 490000
Ar 1.118145e+00 0.000000e+00 0.000000e+00
1
Step 491000
Ar 1.081641e+00 0.000000e+00 0.000000e+00
1
Step 492000
Ar 1.166661e+00 0.000000e+00 0.000000e+00
1
Step 493000
Ar 1.238025e+00 0.000000e+00 0.000000e+00
1
Step 494000
Ar 1.102228e+00 0.000000e+00 0.000000e+00
1
Step 495000
Ar 1.215998e+00 0.000000e+00 0.000000e+00
1
Step 496000
Ar 1.386853e+00 0.000000e+00 0.000000e+00
1
Step 497000
Ar 1.328820e+00 0.000000e+00 0.000000e+00
1
Step 498000
Ar 1.058585e+00 0.000000e+00 0.000000e+00
1
Step 499000
Ar 1.033440e+00 0.000000e+00 0.000000e+00
1
Step 500000
Ar 1.131342e+00 0.000000e+00 0.000000e+00
1
Step 501000
Ar 1.374907e+00 0.000000e+00 0.000000e+00
1
Step 502000
Ar 1.201029e+00 0.000000e+00 0.000000e+00
1
Step 503000
Ar 1.193652e+00 0.000000e+00 0.000000e+00
1
Step 504000
Ar 1.180590e+00 0.000000e+00 0.000000e+00
1
Step 505000
Ar 1.150089e+00 0.000000e+00 0.000000e+00
1
Step 506000
Ar 1.346643e+00 0.000000e+00 0.000000e+00
1
Step 507000
Ar 1.359766e+00 0.000000e+00 0.000000e+00
1
Step 508000
Ar 1.262966e+00 0.000000e+00 0.000000e+00
1
Step 509000
Ar 1.228102e+00 0.000000e+00 0.000000e+00
1
Step 510000
Ar 1.330254e+00 0.000000e+00 0.000000e+00
1
Step 511000
Ar 1.394786e+00 0.000000e+00 0.000000e+00
1
Step 512000
Ar 1.404596e+00 0.000000e+00 0.000000e+00
1
Step 513000
Ar 1.528195e+00 0.000000e+00 0.000000e+00
1
Step 514000
Ar 1.479241e+00 0.000000e+00 0.000000e+00
1
Step 515000
Ar 1.457055e+00 0.000000e+00 0.000000e+00
1
Step 516000
Ar 1.427210e+00 0.000000e+00 0.000000e+00
1
Step 517000
Ar 1.243063e+00 0.000000e+00 0.000000e+00
1
Step 518000
Ar 1.313201e+00 0.000000e+00 0.000000e+00
1
Step 519000
Ar 1.275922e+00 0.000000e+00 0.000000e+00
1
Step 520000
Ar 1.250953e+00 0.000000e+00 0.000000e+00
1
Step 521000
Ar 1.302780e+00 0.000000e+00 0.000000e+00
1
Step 522000
Ar 1.318163e+00 0.000000e+00 0.000000e+00
1
Step 523000
Ar 1.257250e+00 0.000000e+00 0.000000e+00
1
Step 524000
Ar 1.343939e+00 0.000000e+00 0.000000e+00
1
Step 525000
Ar 1.381807e+00 0.000000e+00 0.000000e+00
1
Step 526000
Ar 1.366066e+00 0.000000e+00 0.000000e+00
1
Step 527000
Ar 1.540942e+00 0.000000e+00 0.000000e+00
1
Step 528000
Ar 1.269645e+00 0.000000e+00 0.000000e+00
1
Step 529000
Ar 1.283895e+00 0.000000e+00 0.000000e+00
1
Step 530000
Ar 1.289557e+00 0.000000e+00 0.000000e+00
1
Step 531000
Ar 1.469846e+00 0.000000e+00 0.000000e+00
1
Step 532000
Ar 1.438054e+00 0.000000e+00 0.000000e+00
1
Step 533000
Ar 1.374519e+00 0.000000e+00 0.000000e+00
1
Step 534000
Ar 1.455237e+00 0.000000e+00 0.000000e+00
1
Step 535000
Ar 1.556130e+00 0.000000e+00 0.000000e+00
1
Step 536000
Ar 1.441988e+00 0.000000e+00 0.000000e+00
1
Step 537000
Ar 1.515704e+00 0.000000e+00 0.000000e+00
1
Step 538000
Ar 1.502679e+00 0.000000e+00 0.000000e+00
1
Step 539000
Ar 1.500793e+00 0.000000e+00 0.000000e+00
1
Step 540000
Ar 1.570081e+00 0.000000e+00 0.000000e+00
1
Step 541000
Ar 1.516377e+00 0.000000e+00 0.000000e+00
1
Step 542000
Ar 1.533884e+00 0.000000e+00 0.000000e+00
1
Step 543000
Ar 1.603835e+00 0.000000e+00 0.000000e+00
1
Step 544000
Ar 1.072250e+00 0.000000e+00 0.000000e+00
1
Step 545000
Ar 1.100372e+00 0.000000e+00 0.000000e+00
1
Step 546000
Ar 9.367516e-01 0.000000e+00 0.000000e+00
1
Step 547000
Ar 9.744331e-01 0.000000e+00 0.000000e+00
1
Step 548000
Ar 7.012348e-01 0.000000e+00 0.000000e+00
1
Step 549000
Ar 8.560969e-01 0.000000e+00 0.000000e+00
1
Step 550000
Ar 6.663970e-01 0.000000e+00 0.000000e+00
1
Step 551000
Ar 7.856669e-01 0.000000e+00 0.000000e+00
1
Step 552000
Ar 7.667348e-01 0.000000e+00 0.000000e+00
1
Step 553000
Ar 6.821999e-01 0.000000e+00 0.000000e+00
1
Step 554000
Ar 7.121813e-01 0.000000e+00 0.000000e+00
1
Step 555000
Ar 8.051269e-01 0.000000e+00 0.000000e+00
1
Step 556000
Ar 8.733806e-01 0.000000e+00 0.000000e+00
1
Step 557000
Ar 8.843216e-01 0.000000e+00 0.000000e+00
1
Step 558000
Ar 8.420743e-01 0.000000e+00 0.000000e+00
1
Step 559000
Ar 7.932590e-01 0.000000e+00 0.000000e+00
1
Step 560000
Ar 7.869740e-01 0.000000e+00 0.000000e+00
1
Step 561000
Ar 7.625714e-01 0.000000e+00 0.000000e+00
1
Step 562000
Ar 6.578782e-01 0.000000e+00 0.000000e+00
1
Step 563000
Ar 8.939031e-01 0.000000e+00 0.000000e+00
1
Step 564000
Ar 9.127936e-01 0.000000e+00 0.000000e+00
1
Step 565000
Ar 8.101459e-01 0.000000e+00 0.000000e+00
1
Step 566000
Ar 8.921573e-01 0.000000e+00 0.000000e+00
1
Step 567000
Ar 9.106027e-01 0.000000e+00 0.000000e+00
1
Step 568000
Ar 9.501736e-01 0.000000e+00 0.000000e+00
1
Step 569000
Ar 1.220076e+00 0.000000e+00 0.000000e+00
1
Step 570000
Ar 1.053300e+00 0.000000e+00 0.000000e+00
1
Step 571000
Ar 1.119597e+00 0.000000e+00 0.000000e+00
1
Step 572000
Ar 1.191154e+00 0.000000e+00 0.000000e+00
1
Step 573000
Ar 1.157074e+00 0.000000e+00 0.000000e+00
1
Step 574000
Ar 1.169835e+00 0.000000e+00 0.000000e+00
1
Step 575000
Ar 1.030474e+00 0.000000e+00 0.000000e+00
1
Step 576000
Ar 1.227182e+00 0.000000e+00 0.000000e+00
1
Step 577000
Ar 1.395345e+00 0.000000e+00 0.000000e+00
1
Step 578000
Ar 1.112809e+00 0.000000e+00 0.000000e+00
1
Step 579000
Ar 1.065256e+00 0.000000e+00 0.000000e+00
1
Step 580000
Ar 1.207255e+00 0.000000e+00 0.000000e+00
1
Step 581000
Ar 1.188058e+00 0.000000e+00 0.000000e+00
1
Step 582000
Ar 1.203217e+00 0.000000e+00 0.000000e+00
1
Step 583000
Ar 1.108401e+00 0.000000e+00 0.000000e+00
1
Step 584000
Ar 1.059255e+00 0.000000e+00 0.000000e+00
1
Step 585000
Ar 1.083793e+00 0.000000e+00 0.000000e+00
1
Step 586000
Ar 1.100043e+00 0.000000e+00 0.000000e+00
1
Step 587000
Ar 9.184658e-01 0.000000e+00 0.000000e+00
1
Step 588000
Ar 9.398291e-01 0.000000e+00 0.000000e+00
1
Step 589000
Ar 1.009496e+00 0.000000e+00 0.000000e+00
1
Step 590000
Ar 9.916302e-01 0.000000e+00 0.000000e+00
1
Step 591000
Ar 9.769496e-01 0.000000e+00 0.000000e+00
1
Step 592000
Ar 1.019956e+00 0.000000e+00 0.000000e+00
1
Step 593000
Ar 1.086999e+00 0.000000e+00 0.000000e+00
1
Step 594000
Ar 1.075085e+00 0.000000e+00 0.000000e+00
1
Step 595000
Ar 1.047851e+00 0.000000e+00 0.000000e+00
1
Step 596000
Ar 1.040806e+00 0.000000e+00 0.000000e+00
1
Step 597000
Ar 8.625794e-01 0.000000e+00 0.000000e+00
1
Step 598000
Ar 8.236115e-01 0.000000e+00 0.000000e+00
1
Step 599000
Ar 8.798580e-01 0.000000e+00 0.000000e+00
1
Step 600000
Ar 8.640594e-01 0.000000e+00 0.000000e+00
1
Step 601000
Ar 8.984038e-01 0.000000e+00 0.000000e+00
1
Step 602000
Ar 9.634389e-01 0.000000e+00 0.000000e+00
1
Step 603000
Ar 8.750185e-01 0.000000e+00 0.000000e+00
1
Step 604000
Ar 6.900355e-01 0.000000e+00 0.000000e+00
1
Step 605000
Ar 7.330616e-01 0.000000e+00 0.000000e+00
1
Step 606000
Ar 8.149254e-01 0.000000e+00 0.000000e+00
1
Step 607000
Ar 1.309749e+00 0.000000e+00 0.000000e+00
1
Step 608000
Ar 1.291163e+00 0.000000e+00 0.000000e+00
1
Step 609000
Ar 1.141220e+00 0.000000e+00 0.000000e+00
1
Step 610000
Ar 1.125625e+00 0.000000e+00 0.000000e+00
1
Step 611000
Ar 1.133985e+00 0.000000e+00 0.000000e+00
1
Step 612000
Ar 1.178448e+00 0.000000e+00 0.000000e+00
1
Step 613000
Ar 1.136755e+00 0.000000e+00 0.000000e+00
1
Step 614000
Ar 1.333982e+00 0.000000e+00 0.000000e+00
1
Step 615000
Ar 1.352006e+00 0.000000e+00 0.000000e+00
1
Step 616000
Ar 1.381740e+00 0.000000e+00 0.000000e+00
1
Step 617000
Ar 1.423928e+00 0.000000e+00 0.000000e+00
1
Step 618000
Ar 1.433415e+00 0.000000e+00 0.000000e+00
1
Step 619000
Ar 1.407525e+00 0.000000e+00 0.000000e+00
1
Step 620000
Ar 1.413094e+00 0.000000e+00 0.000000e+00
1
Step 621000
Ar 1.477018e+00 0.000000e+00 0.000000e+00
1
Step 622000
Ar 1.490205e+00 0.000000e+00 0.000000e+00
1
Step 623000
Ar 1.583494e+00 0.000000e+00 0.000000e+00
1
Step 624000
Ar 1.348626e+00 0.000000e+00 0.000000e+00
1
Step 625000
Ar 1.363165e+00 0.000000e+00 0.000000e+00
1
Step 626000
Ar 1.295625e+00 0.000000e+00 0.000000e+00
1
Step 627000
Ar 1.317695e+00 0.000000e+00 0.000000e+00
1
Step 628000
Ar 1.305520e+00 0.000000e+00 0.000000e+00
1
Step 629000
Ar 1.339064e+00 0.000000e+00 0.000000e+00
1
Step 630000
Ar 1.159368e+00 0.000000e+00 0.000000e+00
1
Step 631000
Ar 1.169603e+00 0.000000e+00 0.000000e+00
1
Step 632000
Ar 1.235048e+00 0.000000e+00 0.000000e+00
1
Step 633000
Ar 1.246752e+00 0.000000e+00 0.000000e+00
1
Step 634000
Ar 1.259298e+00 0.000000e+00 0.000000e+00
1
Step 635000
Ar 1.211185e+00 0.000000e+00 0.000000e+00
1
Step 636000
Ar 1.282613e+00 0.000000e+00 0.000000e+00
1
Step 637000
Ar 1.189707e+00 0.000000e+00 0.000000e+00
1
Step 638000
Ar 8.475095e-01 0.000000e+00 0.000000e+00
1
Step 639000
Ar 8.340904e-01 0.000000e+00 0.000000e+00
1
Step 640000
Ar 9.671239e-01 0.000000e+00 0.000000e+00
1
Step 641000
Ar -8.628004e-02 0.000000e+00 0.000000e+00
1
Step 642000
Ar -1.166916e-01 0.000000e+00 0.000000e+00
1
Step 643000
Ar -5.373879e-03 0.000000e+00 0.000000e+00
1
Step 644000
Ar 6.282399e-02 0.000000e+00 0.000000e+00
1
Step 645000
Ar 7.590043e-02 0.000000e+00 0.000000e+00
1
Step 646000
Ar 9.725455e-02 0.000000e+00 0.000000e+00
1
Step 647000
Ar 8.014674e-02 0.000000e+00 0.000000e+00
1
Step 648000
Ar 1.318531e-01 0.000000e+00 0.000000e+00
1
Step 649000
Ar 1.211097e-01 0.000000e+00 0.000000e+00
1
Step 650000
Ar -2.629011e-02 0.000000e+00 0.000000e+00
1
Step 651000
Ar 3.496786e-02 0.000000e+00 0.000000e+00
1
Step 652000
Ar 5.614823e-02 0.000000e+00 0.000000e+00
1
Step 653000