1
Step 120000
Ar 9.806563e-01 0.000000e+00 0.000000e+00
1
Step 121000
Ar 9.957372e-01 0.000000e+00 0.000000e+00
1
Step 122000
Ar 9.955936e-01 0.000000e+00 0.000000e+00
1
Step 123000
Ar 9.820620e-01 0.000000e+00 0.000000e+00
1
Step 124000
Ar 1.002737e+00 0.000000e+00 0.000000e+00
1
Step 125000
Ar 1.000673e+00 0.000000e+00 0.000000e+00
1
Step 126000
Ar 1.016529e+00 0.000000e+00 0.000000e+00
1
Step 127000
Ar 1.010805e+00 0.000000e+00 0.000000e+00
1
Step 128000
Ar 1.010210e+00 0.000000e+00 0.000000e+00
1
Step 129000
Ar 1.020141e+00 0.000000e+00 0.000000e+00
1
Step 130000
Ar 9.824095e-01 0.000000e+00 0.000000e+00
1
Step 131000
Ar 9.900006e-01 0.000000e+00 0.000000e+00
1
Step 132000
Ar 9.934262e-01 0.000000e+00 0.000000e+00
1
Step 133000
Ar 9.683890e-01 0.000000e+00 0.000000e+00
1
Step 134000
Ar 9.821954e-01 0.000000e+00 0.000000e+00
1
Step 135000
Ar 1.030699e+00 0.000000e+00 0.000000e+00
1
Step 136000
Ar 1.031344e+00 0.000000e+00 0.000000e+00
1
Step 137000
Ar 1.030339e+00 0.000000e+00 0.000000e+00
1
Step 138000
Ar 1.031810e+00 0.000000e+00 0.000000e+00
1
Step 139000
Ar 1.031268e+00 0.000000e+00 0.000000e+00
1
Step 140000
Ar 9.533424e-01 0.000000e+00 0.000000e+00
1
Step 141000
Ar 9.564676e-01 0.000000e+00 0.000000e+00
1
Step 142000
Ar 9.532730e-01 0.000000e+00 0.000000e+00
1
Step 143000
Ar 9.491643e-01 0.000000e+00 0.000000e+00
1
Step 144000
Ar 1.008761e+00 0.000000e+00 0.000000e+00
1
Step 145000
Ar 1.012833e+00 0.000000e+00 0.000000e+00
1
Step 146000
Ar 1.042587e+00 0.000000e+00 0.000000e+00
1
Step 147000
Ar 1.042624e+00 0.000000e+00 0.000000e+00
1
Step 148000
Ar 9.910313e-01 0.000000e+00 0.000000e+00
1
Step 149000
Ar 1.009277e+00 0.000000e+00 0.000000e+00
1
Step 150000
Ar 1.008898e+00 0.000000e+00 0.000000e+00
1
Step 151000
Ar 1.004263e+00 0.000000e+00 0.000000e+00
1
Step 152000
Ar 1.012034e+00 0.000000e+00 0.000000e+00
1
Step 153000
Ar 1.008129e+00 0.000000e+00 0.000000e+00
1
Step 154000
Ar 1.011116e+00 0.000000e+00 0.000000e+00
1
Step 155000
Ar 1.005999e+00 0.000000e+00 0.000000e+00
1
Step 156000
Ar 1.007409e+00 0.000000e+00 0.000000e+00
1
Step 157000
Ar 1.012707e+00 0.000000e+00 0.000000e+00
1
Step 158000
Ar 1.003198e+00 0.000000e+00 0.000000e+00
1
Step 159000
Ar 9.839237e-01 0.000000e+00 0.000000e+00
1
Step 160000
Ar 9.839830e-01 0.000000e+00 0.000000e+00
1
Step 161000
Ar 1.061727e+00 0.000000e+00 0.000000e+00
1
Step 162000
Ar 1.005588e+00 0.000000e+00 0.000000e+00
1
Step 163000
Ar 9.858280e-01 0.000000e+00 0.000000e+00
1
Step 164000
Ar 9.878451e-01 0.000000e+00 0.000000e+00
1
Step 165000
Ar 1.001107e+00 0.000000e+00 0.000000e+00
1
Step 166000
Ar 1.026470e+00 0.000000e+00 0.000000e+00
1
Step 167000
Ar 1.008253e+00 0.000000e+00 0.000000e+00
1
Step 168000
Ar 1.026432e+00 0.000000e+00 0.000000e+00
1
Step 169000
Ar 9.729170e-01 0.000000e+00 0.000000e+00
1
Step 170000
Ar 9.868784e-01 0.000000e+00 0.000000e+00
1
Step 171000
Ar 1.010862e+00 0.000000e+00 0.000000e+00
1
Step 172000
Ar 1.043483e+00 0.000000e+00 0.000000e+00
1
Step 173000
Ar 9.235714e-01 0.000000e+00 0.000000e+00
1
Step 174000
Ar 9.369992e-01 0.000000e+00 0.000000e+00
1
Step 175000
Ar 9.415246e-01 0.000000e+00 0.000000e+00
1
Step 176000
Ar 9.302983e-01 0.000000e+00 0.000000e+00
1
Step 177000
Ar 9.209898e-01 0.000000e+00 0.000000e+00
1
Step 178000
Ar 9.253083e-01 0.000000e+00 0.000000e+00
1
Step 179000
Ar 9.416123e-01 0.000000e+00 0.000000e+00
1
Step 180000
Ar 9.449638e-01 0.000000e+00 0.000000e+00
1
Step 181000
Ar 1.056618e+00 0.000000e+00 0.000000e+00
1
Step 182000
Ar 1.042098e+00 0.000000e+00 0.000000e+00
1
Step 183000
Ar 1.056482e+00 0.000000e+00 0.000000e+00
1
Step 184000
Ar 1.003966e+00 0.000000e+00 0.000000e+00
1
Step 185000
Ar 9.842400e-01 0.000000e+00 0.000000e+00
1
Step 186000
Ar 9.905559e-01 0.000000e+00 0.000000e+00
1
Step 187000
Ar 9.995403e-01 0.000000e+00 0.000000e+00
1
Step 188000
Ar 9.848350e-01 0.000000e+00 0.000000e+00
1
Step 189000
Ar 9.935776e-01 0.000000e+00 0.000000e+00
1
Step 190000
Ar 9.975969e-01 0.000000e+00 0.000000e+00
1
Step 191000
Ar 9.790598e-01 0.000000e+00 0.000000e+00
1
Step 192000
Ar 1.006399e+00 0.000000e+00 0.000000e+00
1
Step 193000
Ar 9.919598e-01 0.000000e+00 0.000000e+00
1
Step 194000
Ar 9.474074e-01 0.000000e+00 0.000000e+00
1
Step 195000
Ar 1.057274e+00 0.000000e+00 0.000000e+00
1
Step 196000
Ar 9.876645e-01 0.000000e+00 0.000000e+00
1
Step 197000
Ar 9.877485e-01 0.000000e+00 0.000000e+00
1
Step 198000
Ar 9.900368e-01 0.000000e+00 0.000000e+00
1
Step 199000
Ar 9.874725e-01 0.000000e+00 0.000000e+00
1
Step 200000
Ar 9.868103e-01 0.000000e+00 0.000000e+00
1
Step 201000
Ar 9.876347e-01 0.000000e+00 0.000000e+00
1
Step 202000
Ar 9.884649e-01 0.000000e+00 0.000000e+00
1
Step 203000
Ar 9.829217e-01 0.000000e+00 0.000000e+00
1
Step 204000
Ar 9.838452e-01 0.000000e+00 0.000000e+00
1
Step 205000
Ar 9.812888e-01 0.000000e+00 0.000000e+00
1
Step 206000
Ar 9.833389e-01 0.000000e+00 0.000000e+00
1
Step 207000
Ar 9.844787e-01 0.000000e+00 0.000000e+00
1
Step 208000
Ar 1.080241e+00 0.000000e+00 0.000000e+00
1
Step 209000
Ar 1.074656e+00 0.000000e+00 0.000000e+00
1
Step 210000
Ar 1.075333e+00 0.000000e+00 0.000000e+00
1
Step 211000
Ar 8.372428e-01 0.000000e+00 0.000000e+00
1
Step 212000
Ar 1.023308e+00 0.000000e+00 0.000000e+00
1
Step 213000
Ar 1.021829e+00 0.000000e+00 0.000000e+00
1
Step 214000
Ar 1.018993e+00 0.000000e+00 0.000000e+00
1
Step 215000
Ar 1.018557e+00 0.000000e+00 0.000000e+00
1
Step 216000
Ar 1.017022e+00 0.000000e+00 0.000000e+00
1
Step 217000
Ar 1.015376e+00 0.000000e+00 0.000000e+00
1
Step 218000
Ar 7.545698e-01 0.000000e+00 0.000000e+00
1
Step 219000
Ar 1.081762e+00 0.000000e+00 0.000000e+00
1
Step 220000
Ar 1.075620e+00 0.000000e+00 0.000000e+00
1
Step 221000
Ar 1.080630e+00 0.000000e+00 0.000000e+00
1
Step 222000
Ar 9.757188e-01 0.000000e+00 0.000000e+00
1
Step 223000
Ar 9.945754e-01 0.000000e+00 0.000000e+00
1
Step 224000
Ar 9.676043e-01 0.000000e+00 0.000000e+00
1
Step 225000
Ar 1.084995e+00 0.000000e+00 0.000000e+00
1
Step 226000
Ar 1.116286e+00 0.000000e+00 0.000000e+00
1
Step 227000
Ar 1.043280e+00 0.000000e+00 0.000000e+00
1
Step 228000
Ar 1.036703e+00 0.000000e+00 0.000000e+00
1
Step 229000
Ar 1.041085e+00 0.000000e+00 0.000000e+00
1
Step 230000
Ar 1.039109e+00 0.000000e+00 0.000000e+00
1
Step 231000
Ar 1.045220e+00 0.000000e+00 0.000000e+00
1
Step 232000
Ar 9.778889e-01 0.000000e+00 0.000000e+00
1
Step 233000
Ar 9.806862e-01 0.000000e+00 0.000000e+00
1
Step 234000
Ar 9.779812e-01 0.000000e+00 0.000000e+00
1
Step 235000
Ar 9.784948e-01 0.000000e+00 0.000000e+00
1
Step 236000
Ar 9.766791e-01 0.000000e+00 0.000000e+00
1
Step 237000
Ar 9.798827e-01 0.000000e+00 0.000000e+00
1
Step 238000
Ar 1.049200e+00 0.000000e+00 0.000000e+00
1
Step 239000
Ar 1.033964e+00 0.000000e+00 0.000000e+00
1
Step 240000
Ar 1.008681e+00 0.000000e+00 0.000000e+00
1
Step 241000
Ar 1.052690e+00 0.000000e+00 0.000000e+00
1
Step 242000
Ar 1.043986e+00 0.000000e+00 0.000000e+00
1
Step 243000
Ar 1.051156e+00 0.000000e+00 0.000000e+00
1
Step 244000
Ar 1.051332e+00 0.000000e+00 0.000000e+00
1
Step 245000
Ar 1.048883e+00 0.000000e+00 0.000000e+00
1
Step 246000
Ar 1.092387e+00 0.000000e+00 0.000000e+00
1
Step 247000
Ar 1.080945e+00 0.000000e+00 0.000000e+00
1
Step 248000
Ar 1.098243e+00 0.000000e+00 0.000000e+00
1
Step 249000
Ar 1.106516e+00 0.000000e+00 0.000000e+00
1
Step 250000
Ar 1.120338e+00 0.000000e+00 0.000000e+00
1
Step 251000
Ar 1.072294e+00 0.000000e+00 0.000000e+00
1
Step 252000
Ar 1.076027e+00 0.000000e+00 0.000000e+00
1
Step 253000
Ar 9.368935e-01 0.000000e+00 0.000000e+00
1
Step 254000
Ar 1.100077e+00 0.000000e+00 0.000000e+00
1
Step 255000
Ar 9.040906e-01 0.000000e+00 0.000000e+00
1
Step 256000
Ar 9.071802e-01 0.000000e+00 0.000000e+00
1
Step 257000
Ar 1.053137e+00 0.000000e+00 0.000000e+00
1
Step 258000
Ar 1.077935e+00 0.000000e+00 0.000000e+00
1
Step 259000
Ar 1.125688e+00 0.000000e+00 0.000000e+00
1
Step 260000
Ar 1.110064e+00 0.000000e+00 0.000000e+00
1
Step 261000
Ar 1.087512e+00 0.000000e+00 0.000000e+00
1
Step 262000
Ar 9.782581e-01 0.000000e+00 0.000000e+00
1
Step 263000
Ar 8.912902e-01 0.000000e+00 0.000000e+00
1
Step 264000
Ar 8.922811e-01 0.000000e+00 0.000000e+00
1
Step 265000
Ar 8.931806e-01 0.000000e+00 0.000000e+00
1
Step 266000
Ar 8.876096e-01 0.000000e+00 0.000000e+00
1
Step 267000
Ar 8.938345e-01 0.000000e+00 0.000000e+00
1
Step 268000
Ar 8.902799e-01 0.000000e+00 0.000000e+00
1
Step 269000
Ar 8.886387e-01 0.000000e+00 0.000000e+00
1
Step 270000
Ar 8.996568e-01 0.000000e+00 0.000000e+00
1
Step 271000
Ar 1.069060e+00 0.000000e+00 0.000000e+00
1
Step 272000
Ar 9.029027e-01 0.000000e+00 0.000000e+00
1
Step 273000
Ar 9.052683e-01 0.000000e+00 0.000000e+00
1
Step 274000
Ar 9.039152e-01 0.000000e+00 0.000000e+00
1
Step 275000
Ar 9.001094e-01 0.000000e+00 0.000000e+00
1
Step 276000
Ar 8.841906e-01 0.000000e+00 0.000000e+00
1
Step 277000
Ar 8.809489e-01 0.000000e+00 0.000000e+00
1
Step 278000
Ar 9.560733e-01 0.000000e+00 0.000000e+00
1
Step 279000
Ar 9.996251e-01 0.000000e+00 0.000000e+00
1
Step 280000
Ar 9.951526e-01 0.000000e+00 0.000000e+00
1
Step 281000
Ar 8.752486e-01 0.000000e+00 0.000000e+00
1
Step 282000
Ar 1.089285e+00 0.000000e+00 0.000000e+00
1
Step 283000
Ar 8.625286e-01 0.000000e+00 0.000000e+00
1
Step 284000
Ar 8.648775e-01 0.000000e+00 0.000000e+00
1
Step 285000
Ar 8.657973e-01 0.000000e+00 0.000000e+00
1
Step 286000
Ar 8.679360e-01 0.000000e+00 0.000000e+00
1
Step 287000
Ar 1.053441e+00 0.000000e+00 0.000000e+00
1
Step 288000
Ar 1.015315e+00 0.000000e+00 0.000000e+00
1
Step 289000
Ar 9.798644e-01 0.000000e+00 0.000000e+00
1
Step 290000
Ar 8.691933e-01 0.000000e+00 0.000000e+00
1
Step 291000
Ar 1.103506e+00 0.000000e+00 0.000000e+00
1
Step 292000
Ar 8.055578e-01 0.000000e+00 0.000000e+00
1
Step 293000
Ar 1.006865e+00 0.000000e+00 0.000000e+00
1
Step 294000
Ar 1.005563e+00 0.000000e+00 0.000000e+00
1
Step 295000
Ar 9.814567e-01 0.000000e+00 0.000000e+00
1
Step 296000
Ar 8.907734e-01 0.000000e+00 0.000000e+00
1
Step 297000
Ar 9.190991e-01 0.000000e+00 0.000000e+00
1
Step 298000
Ar 9.821411e-01 0.000000e+00 0.000000e+00
1
Step 299000
Ar 9.438855e-01 0.000000e+00 0.000000e+00
1
Step 300000
Ar 1.098554e+00 0.000000e+00 0.000000e+00
1
Step 301000
Ar 9.086313e-01 0.000000e+00 0.000000e+00
1
Step 302000
Ar 8.516206e-01 0.000000e+00 0.000000e+00
1
Step 303000
Ar 1.036050e+00 0.000000e+00 0.000000e+00
1
Step 304000
Ar 1.090663e+00 0.000000e+00 0.000000e+00
1
Step 305000
Ar 9.943743e-01 0.000000e+00 0.000000e+00
1
Step 306000
Ar 1.035790e+00 0.000000e+00 0.000000e+00
1
Step 307000
Ar 1.028005e+00 0.000000e+00 0.000000e+00
1
Step 308000
Ar 1.027279e+00 0.000000e+00 0.000000e+00
1
Step 309000
Ar 1.028618e+00 0.000000e+00 0.000000e+00
1
Step 310000
Ar 8.192030e-01 0.000000e+00 0.000000e+00
1
Step 311000
Ar 9.857486e-01 0.000000e+00 0.000000e+00
1
Step 312000
Ar 8.905548e-01 0.000000e+00 0.000000e+00
1
Step 313000
Ar 1.043780e+00 0.000000e+00 0.000000e+00
1
Step 314000
Ar 1.047796e+00 0.000000e+00 0.000000e+00
1
Step 315000
Ar 1.059379e+00 0.000000e+00 0.000000e+00
1
Step 316000
Ar 1.041017e+00 0.000000e+00 0.000000e+00
1
Step 317000
Ar 1.049357e+00 0.000000e+00 0.000000e+00
1
Step 318000
Ar 9.221374e-01 0.000000e+00 0.000000e+00
1
Step 319000
Ar 9.309006e-01 0.000000e+00 0.000000e+00
1
Step 320000
Ar 9.241153e-01 0.000000e+00 0.000000e+00
1
Step 321000
Ar 9.244240e-01 0.000000e+00 0.000000e+00
1
Step 322000
Ar 9.237207e-01 0.000000e+00 0.000000e+00
1
Step 323000
Ar 8.103153e-01 0.000000e+00 0.000000e+00
1
Step 324000
Ar 8.478464e-01 0.000000e+00 0.000000e+00
1
Step 325000
Ar 1.085514e+00 0.000000e+00 0.000000e+00
1
Step 326000
Ar 9.334423e-01 0.000000e+00 0.000000e+00
1
Step 327000
Ar 1.059557e+00 0.000000e+00 0.000000e+00
1
Step 328000
Ar 1.049080e+00 0.000000e+00 0.000000e+00
1
Step 329000
Ar 1.009071e+00 0.000000e+00 0.000000e+00
1
Step 330000
Ar 9.047074e-01 0.000000e+00 0.000000e+00
1
Step 331000
Ar 9.271140e-01 0.000000e+00 0.000000e+00
1
Step 332000
Ar 9.746216e-01 0.000000e+00 0.000000e+00
1
Step 333000
Ar 1.075682e+00 0.000000e+00 0.000000e+00
1
Step 334000
Ar 9.267558e-01 0.000000e+00 0.000000e+00
1
Step 335000
Ar 9.312727e-01 0.000000e+00 0.000000e+00
1
Step 336000
Ar 1.104765e+00 0.000000e+00 0.000000e+00
1
Step 337000
Ar 9.601363e-01 0.000000e+00 0.000000e+00
1
Step 338000
Ar 9.259677e-01 0.000000e+00 0.000000e+00
1
Step 339000
Ar 9.568704e-01 0.000000e+00 0.000000e+00
1
Step 340000
Ar 9.785490e-01 0.000000e+00 0.000000e+00
1
Step 341000
Ar 1.075097e+00 0.000000e+00 0.000000e+00
1
Step 342000
Ar 1.077979e+00 0.000000e+00 0.000000e+00
1
Step 343000
Ar 1.079074e+00 0.000000e+00 0.000000e+00
1
Step 344000
Ar 1.081039e+00 0.000000e+00 0.000000e+00
1
Step 345000
Ar 8.868666e-01 0.000000e+00 0.000000e+00
1
Step 346000
Ar 1.257127e+00 0.000000e+00 0.000000e+00
1
Step 347000
Ar 1.039119e+00 0.000000e+00 0.000000e+00
1
Step 348000
Ar 7.526474e-01 0.000000e+00 0.000000e+00
1
Step 349000
Ar 8.945480e-01 0.000000e+00 0.000000e+00
1
Step 350000
Ar 1.032937e+00 0.000000e+00 0.000000e+00
1
Step 351000
Ar 9.126409e-01 0.000000e+00 0.000000e+00
1
Step 352000
Ar 9.236841e-01 0.000000e+00 0.000000e+00
1
Step 353000
Ar 1.082899e+00 0.000000e+00 0.000000e+00
1
Step 354000
Ar 1.096583e+00 0.000000e+00 0.000000e+00
1
Step 355000
Ar 1.134966e+00 0.000000e+00 0.000000e+00
1
Step 356000
Ar 1.100703e+00 0.000000e+00 0.000000e+00
1
Step 357000
Ar 1.053598e+00 0.000000e+00 0.000000e+00
1
Step 358000
Ar 7.598534e-01 0.000000e+00 0.000000e+00
1
Step 359000
Ar 7.432592e-01 0.000000e+00 0.000000e+00
1
Step 360000
Ar 9.321245e-01 0.000000e+00 0.000000e+00
1
Step 361000
Ar 1.137990e+00 0.000000e+00 0.000000e+00
1
Step 362000
Ar 9.471765e-01 0.000000e+00 0.000000e+00
1
Step 363000
Ar 1.034323e+00 0.000000e+00 0.000000e+00
1
Step 364000
Ar 9.294666e-01 0.000000e+00 0.000000e+00
1
Step 365000
Ar 9.811528e-01 0.000000e+00 0.000000e+00
1
Step 366000
Ar 9.418987e-01 0.000000e+00 0.000000e+00
1
Step 367000
Ar 8.284305e-01 0.000000e+00 0.000000e+00
1
Step 368000
Ar 9.215987e-01 0.000000e+00 0.000000e+00
1
Step 369000
Ar 1.163906e+00 0.000000e+00 0.000000e+00
1
Step 370000
Ar 1.072477e+00 0.000000e+00 0.000000e+00
1
Step 371000
Ar 8.029791e-01 0.000000e+00 0.000000e+00
1
Step 372000
Ar 1.013258e+00 0.000000e+00 0.000000e+00
1
Step 373000
Ar 9.476284e-01 0.000000e+00 0.000000e+00
1
Step 374000
Ar 9.771726e-01 0.000000e+00 0.000000e+00
1
Step 375000
Ar 1.009175e+00 0.000000e+00 0.000000e+00
1
Step 376000
Ar 9.536926e-01 0.000000e+00 0.000000e+00
1
Step 377000
Ar 9.529344e-01 0.000000e+00 0.000000e+00
1
Step 378000
Ar 1.104558e+00 0.000000e+00 0.000000e+00
1
Step 379000
Ar 9.760668e-01 0.000000e+00 0.000000e+00
1
Step 380000
Ar 9.646133e-01 0.000000e+00 0.000000e+00
1
Step 381000
Ar 1.057697e+00 0.000000e+00 0.000000e+00
1
Step 382000
Ar 6.861186e-01 0.000000e+00 0.000000e+00
1
Step 383000
Ar 9.238696e-01 0.000000e+00 0.000000e+00
1
Step 384000
Ar 6.540071e-01 0.000000e+00 0.000000e+00
1
Step 385000
Ar 6.004139e-01 0.000000e+00 0.000000e+00
1
Step 386000
Ar 9.410534e-01 0.000000e+00 0.000000e+00
1
Step 387000
Ar 1.060399e+00 0.000000e+00 0.000000e+00
1
Step 388000
Ar 1.130627e+00 0.000000e+00 0.000000e+00
1
Step 389000
Ar 9.275433e-01 0.000000e+00 0.000000e+00
1
Step 390000
Ar 9.511503e-01 0.000000e+00 0.000000e+00
1
Step 391000
Ar 9.557584e-01 0.000000e+00 0.000000e+00
1
Step 392000
Ar 1.272502e+00 0.000000e+00 0.000000e+00
1
Step 393000
Ar 6.963891e-01 0.000000e+00 0.000000e+00
1
Step 394000
Ar 8.476915e-01 0.000000e+00 0.000000e+00
1
Step 395000
Ar 8.514560e-01 0.000000e+00 0.000000e+00
1
Step 396000
Ar 8.498614e-01 0.000000e+00 0.000000e+00
1
Step 397000
Ar 9.847210e-01 0.000000e+00 0.000000e+00
1
Step 398000
Ar 1.123775e+00 0.000000e+00 0.000000e+00
1
Step 399000
Ar 1.091080e+00 0.000000e+00 0.000000e+00
1
Step 400000
Ar 1.082058e+00 0.000000e+00 0.000000e+00
1
Step 401000
Ar 1.115971e+00 0.000000e+00 0.000000e+00
1
Step 402000
Ar 8.059769e-01 0.000000e+00 0.000000e+00
1
Step 403000
Ar 1.058810e+00 0.000000e+00 0.000000e+00
1
Step 404000
Ar 8.122735e-01 0.000000e+00 0.000000e+00
1
Step 405000
Ar 1.077892e+00 0.000000e+00 0.000000e+00
1
Step 406000
Ar 7.295878e-01 0.000000e+00 0.000000e+00
1
Step 407000
Ar 8.916318e-01 0.000000e+00 0.000000e+00
1
Step 408000
Ar 7.018804e-01 0.000000e+00 0.000000e+00
1
Step 409000
Ar 8.925798e-01 0.000000e+00 0.000000e+00
1
Step 410000
Ar 8.331590e-01 0.000000e+00 0.000000e+00
1
Step 411000
Ar 7.049968e-01 0.000000e+00 0.000000e+00
1
Step 412000
Ar 9.617270e-01 0.000000e+00 0.000000e+00
1
Step 413000
Ar 9.883635e-01 0.000000e+00 0.000000e+00
1
Step 414000
Ar 1.284755e+00 0.000000e+00 0.000000e+00
1
Step 415000
Ar 7.644866e-01 0.000000e+00 0.000000e+00
1
Step 416000
Ar 9.538159e-01 0.000000e+00 0.000000e+00
1
Step 417000
Ar 1.110100e+00 0.000000e+00 0.000000e+00
1
Step 418000
Ar 8.009243e-01 0.000000e+00 0.000000e+00
1
Step 419000
Ar 8.917867e-01 0.000000e+00 0.000000e+00
1
Step 420000
Ar 8.473944e-01 0.000000e+00 0.000000e+00
1
Step 421000
Ar 8.483147e-01 0.000000e+00 0.000000e+00
1
Step 422000
Ar 8.462995e-01 0.000000e+00 0.000000e+00
1
Step 423000
Ar 8.459832e-01 0.000000e+00 0.000000e+00
1
Step 424000
Ar 1.166323e+00 0.000000e+00 0.000000e+00
1
Step 425000
Ar 1.126161e+00 0.000000e+00 0.000000e+00
1
Step 426000
Ar 1.194010e+00 0.000000e+00 0.000000e+00
1
Step 427000
Ar 1.119714e+00 0.000000e+00 0.000000e+00
1
Step 428000
Ar 1.126429e+00 0.000000e+00 0.000000e+00
1
Step 429000
Ar 1.266129e+00 0.000000e+00 0.000000e+00
1
Step 430000
Ar 1.391532e+00 0.000000e+00 0.000000e+00
1
Step 431000
Ar 9.008718e-01 0.000000e+00 0.000000e+00
1
Step 432000
Ar 1.018828e+00 0.000000e+00 0.000000e+00
1
Step 433000
Ar 1.069970e+00 0.000000e+00 0.000000e+00
1
Step 434000
Ar 8.525022e-01 0.000000e+00 0.000000e+00
1
Step 435000
Ar 9.443967e-01 0.000000e+00 0.000000e+00
1
Step 436000
Ar 1.102238e+00 0.000000e+00 0.000000e+00
1
Step 437000
Ar 9.763596e-01 0.000000e+00 0.000000e+00
1
Step 438000
Ar 1.008659e+00 0.000000e+00 0.000000e+00
1
Step 439000
Ar 1.186106e+00 0.000000e+00 0.000000e+00
1
Step 440000
Ar 7.135785e-01 0.000000e+00 0.000000e+00
1
Step 441000
Ar 6.215621e-01 0.000000e+00 0.000000e+00
1
Step 442000
Ar 6.798492e-01 0.000000e+00 0.000000e+00
1
Step 443000
Ar 8.791560e-01 0.000000e+00 0.000000e+00
1
Step 444000
Ar 1.059920e+00 0.000000e+00 0.000000e+00
1
Step 445000
Ar 8.102021e-01 0.000000e+00 0.000000e+00
1
Step 446000
Ar 8.429918e-01 0.000000e+00 0.000000e+00
1
Step 447000
Ar 1.032280e+00 0.000000e+00 0.000000e+00
1
Step 448000
Ar 6.944930e-01 0.000000e+00 0.000000e+00
1
Step 449000
Ar 9.718910e-01 0.000000e+00 0.000000e+00
1
Step 450000
Ar 9.092431e-01 0.000000e+00 0.000000e+00
1
Step 451000
Ar 8.447877e-01 0.000000e+00 0.000000e+00
1
Step 452000
Ar 9.595257e-01 0.000000e+00 0.000000e+00
1
Step 453000
Ar 9.589983e-01 0.000000e+00 0.000000e+00
1
Step 454000
Ar 8.428343e-01 0.000000e+00 0.000000e+00
1
Step 455000
Ar 8.334256e-01 0.000000e+00 0.000000e+00
1
Step 456000
Ar 8.347534e-01 0.000000e+00 0.000000e+00
1
Step 457000
Ar 8.388586e-01 0.000000e+00 0.000000e+00
1
Step 458000
Ar 9.627596e-01 0.000000e+00 0.000000e+00
1
Step 459000
Ar 1.099630e+00 0.000000e+00 0.000000e+00
1
Step 460000
Ar 8.733519e-01 0.000000e+00 0.000000e+00
1
Step 461000
Ar 6.016049e-01 0.000000e+00 0.000000e+00
1
Step 462000
Ar 8.114069e-01 0.000000e+00 0.000000e+00
1
Step 463000
Ar 1.056982e+00 0.000000e+00 0.000000e+00
1
Step 464000
Ar 1.195712e+00 0.000000e+00 0.000000e+00
1
Step 465000
Ar 9.086997e-01 0.000000e+00 0.000000e+00
1
Step 466000
Ar 1.124480e+00 0.000000e+00 0.000000e+00
1
Step 467000
Ar 1.035139e+00 0.000000e+00 0.000000e+00
1
Step 468000
Ar 1.130725e+00 0.000000e+00 0.000000e+00
1
Step 469000
Ar 1.130977e+00 0.000000e+00 0.000000e+00
1
Step 470000
Ar 7.761752e-01 0.000000e+00 0.000000e+00
1
Step 471000
Ar 8.597936e-01 0.000000e+00 0.000000e+00
1
Step 472000
Ar 9.984994e-01 0.000000e+00 0.000000e+00
1
Step 473000
Ar 1.040356e+00 0.000000e+00 0.000000e+00
1
Step 474000
Ar 7.460799e-01 0.000000e+00 0.000000e+00
1
Step 475000
Ar 8.485451e-01 0.000000e+00 0.000000e+00
1
Step 476000
Ar 9.188162e-01 0.000000e+00 0.000000e+00
1
Step 477000
Ar 6.016177e-01 0.000000e+00 0.000000e+00
1
Step 478000
Ar 1.099413e+00 0.000000e+00 0.000000e+00
1
Step 479000
Ar 1.138102e+00 0.000000e+00 0.000000e+00
1
Step 480000
Ar 1.117175e+00 0.000000e+00 0.000000e+00
1
Step 481000
Ar 9.839304e-01 0.000000e+00 0.000000e+00
1
Step 482000
Ar 6.087754e-01 0.000000e+00 0.000000e+00
1
Step 483000
Ar 1.164577e+00 0.000000e+00 0.000000e+00
1
Step 484000
Ar 1.017543e+00 0.000000e+00 0.000000e+00
1
Step 485000
Ar 1.225140e+00 0.000000e+00 0.000000e+00
1
Step 486000
Ar 1.084520e+00 0.000000e+00 0.000000e+00
1
Step 487000
Ar 7.398163e-01 0.000000e+00 0.000000e+00
1
Step 488000
Ar 9.171955e-01 0.000000e+00 0.000000e+00
1
Step 489000
Ar 6.723317e-01 0.000000e+00 0.000000e+00
1
Step 490000
Ar 9.254370e-01 0.000000e+00 0.000000e+00
1
Step 491000
Ar 7.280911e-01 0.000000e+00 0.000000e+00
1
Step 492000
Ar 9.155987e-01 0.000000e+00 0.000000e+00
1
Step 493000
Ar 1.052280e+00 0.000000e+00 0.000000e+00
1
Step 494000
Ar 7.520688e-01 0.000000e+00 0.000000e+00
1
Step 495000
Ar 8.962627e-01 0.000000e+00 0.000000e+00
1
Step 496000
Ar 1.168424e+00 0.000000e+00 0.000000e+00
1
Step 497000
Ar 1.108113e+00 0.000000e+00 0.000000e+00
1
Step 498000
Ar 9.721459e-01 0.000000e+00 0.000000e+00
1
Step 499000
Ar 1.099930e+00 0.000000e+00 0.000000e+00
1
Step 500000
Ar 8.863244e-01 0.000000e+00 0.000000e+00
1
Step 501000
Ar 8.845819e-01 0.000000e+00 0.000000e+00
1
Step 502000
Ar 8.834167e-01 0.000000e+00 0.000000e+00
1
Step 503000
Ar 8.869423e-01 0.000000e+00 0.000000e+00
1
Step 504000
Ar 8.864012e-01 0.000000e+00 0.000000e+00
1
Step 505000
Ar 9.700084e-01 0.000000e+00 0.000000e+00
1
Step 506000
Ar 5.756442e-01 0.000000e+00 0.000000e+00
1
Step 507000
Ar 8.171523e-01 0.000000e+00 0.000000e+00
1
Step 508000
Ar 9.277247e-01 0.000000e+00 0.000000e+00
1
Step 509000
Ar 1.083413e+00 0.000000e+00 0.000000e+00
1
Step 510000
Ar 1.057564e+00 0.000000e+00 0.000000e+00
1
Step 511000
Ar 9.057957e-01 0.000000e+00 0.000000e+00
1
Step 512000
Ar 7.500691e-01 0.000000e+00 0.000000e+00
1
Step 513000
Ar 9.648186e-01 0.000000e+00 0.000000e+00
1
Step 514000
Ar 6.980549e-01 0.000000e+00 0.000000e+00
1
Step 515000
Ar 1.053674e+00 0.000000e+00 0.000000e+00
1
Step 516000
Ar 1.104810e+00 0.000000e+00 0.000000e+00
1
Step 517000
Ar 8.389119e-01 0.000000e+00 0.000000e+00
1
Step 518000
Ar 6.519199e-01 0.000000e+00 0.000000e+00
1
Step 519000
Ar 9.391037e-01 0.000000e+00 0.000000e+00
1
Step 520000
Ar 8.580238e-01 0.000000e+00 0.000000e+00
1
Step 521000
Ar 8.971475e-01 0.000000e+00 0.000000e+00
1
Step 522000
Ar 1.101134e+00 0.000000e+00 0.000000e+00
1
Step 523000
Ar 8.144883e-01 0.000000e+00 0.000000e+00
1
Step 524000
Ar 9.866761e-01 0.000000e+00 0.000000e+00
1
Step 525000
Ar 1.073896e+00 0.000000e+00 0.000000e+00
1
Step 526000
Ar 1.054910e+00 0.000000e+00 0.000000e+00
1
Step 527000
Ar 8.988714e-01 0.000000e+00 0.000000e+00
1
Step 528000
Ar 1.057453e+00 0.000000e+00 0.000000e+00
1
Step 529000
Ar 9.044048e-01 0.000000e+00 0.000000e+00
1
Step 530000
Ar 9.062695e-01 0.000000e+00 0.000000e+00
1
Step 531000
Ar 8.806458e-01 0.000000e+00 0.000000e+00
1
Step 532000
Ar 8.809449e-01 0.000000e+00 0.000000e+00
1
Step 533000
Ar 8.823724e-01 0.000000e+00 0.000000e+00
1
Step 534000
Ar 1.054014e+00 0.000000e+00 0.000000e+00
1
Step 535000
Ar 6.731714e-01 0.000000e+00 0.000000e+00
1
Step 536000
Ar 9.001347e-01 0.000000e+00 0.000000e+00
1
Step 537000
Ar 8.857967e-01 0.000000e+00 0.000000e+00
1
Step 538000
Ar 9.193840e-01 0.000000e+00 0.000000e+00
1
Step 539000
Ar 1.057907e+00 0.000000e+00 0.000000e+00
1
Step 540000
Ar 1.167539e+00 0.000000e+00 0.000000e+00
1
Step 541000
Ar 1.142388e+00 0.000000e+00 0.000000e+00
1
Step 542000
Ar 1.143939e+00 0.000000e+00 0.000000e+00
1
Step 543000
Ar 8.181143e-01 0.000000e+00 0.000000e+00
1
Step 544000
Ar 8.220399e-01 0.000000e+00 0.000000e+00
1
Step 545000
Ar 8.178149e-01 0.000000e+00 0.000000e+00
1
Step 546000
Ar 8.182478e-01 0.000000e+00 0.000000e+00
1
Step 547000
Ar 1.138387e+00 0.000000e+00 0.000000e+00
1
Step 548000
Ar 1.135323e+00 0.000000e+00 0.000000e+00
1
Step 549000
Ar 1.056123e+00 0.000000e+00 0.000000e+00
1
Step 550000
Ar 1.135716e+00 0.000000e+00 0.000000e+00
1
Step 551000
Ar 8.176613e-01 0.000000e+00 0.000000e+00
1
Step 552000
Ar 8.158824e-01 0.000000e+00 0.000000e+00
1
Step 553000
Ar 8.122863e-01 0.000000e+00 0.000000e+00
1
Step 554000
Ar 8.173548e-01 0.000000e+00 0.000000e+00
1
Step 555000
Ar 8.154744e-01 0.000000e+00 0.000000e+00
1
Step 556000
Ar 8.139740e-01 0.000000e+00 0.000000e+00
1
Step 557000
Ar 8.142078e-01 0.000000e+00 0.000000e+00
1
Step 558000
Ar 8.153698e-01 0.000000e+00 0.000000e+00
1
Step 559000
Ar 8.124410e-01 0.000000e+00 0.000000e+00
1
Step 560000
Ar 8.132165e-01 0.000000e+00 0.000000e+00
1
Step 561000
Ar 8.158641e-01 0.000000e+00 0.000000e+00
1
Step 562000
Ar 8.152545e-01 0.000000e+00 0.000000e+00
1
Step 563000
Ar 8.153198e-01 0.000000e+00 0.000000e+00
1
Step 564000
Ar 8.075937e-01 0.000000e+00 0.000000e+00
1
Step 565000
Ar 8.062306e-01 0.000000e+00 0.000000e+00
1
Step 566000
Ar 8.962560e-01 0.000000e+00 0.000000e+00
1
Step 567000
Ar 1.055089e+00 0.000000e+00 0.000000e+00
1
Step 568000
Ar 7.593291e-01 0.000000e+00 0.000000e+00
1
Step 569000
Ar 8.717662e-01 0.000000e+00 0.000000e+00
1
Step 570000
Ar 9.390807e-01 0.000000e+00 0.000000e+00
1
Step 571000
Ar 8.173756e-01 0.000000e+00 0.000000e+00
1
Step 572000
Ar 8.135433e-01 0.000000e+00 0.000000e+00
1
Step 573000
Ar 8.126561e-01 0.000000e+00 0.000000e+00
1
Step 574000
Ar 8.116747e-01 0.000000e+00 0.000000e+00
1
Step 575000
Ar 8.121469e-01 0.000000e+00 0.000000e+00
1
Step 576000
Ar 8.127873e-01 0.000000e+00 0.000000e+00
1
Step 577000
Ar 1.035008e+00 0.000000e+00 0.000000e+00
1
Step 578000
Ar 1.059689e+00 0.000000e+00 0.000000e+00
1
Step 579000
Ar 1.064539e+00 0.000000e+00 0.000000e+00
1
Step 580000
Ar 9.702423e-01 0.000000e+00 0.000000e+00
1
Step 581000
Ar 8.421910e-01 0.000000e+00 0.000000e+00
1
Step 582000
Ar 9.267737e-01 0.000000e+00 0.000000e+00
1
Step 583000
Ar 9.554587e-01 0.000000e+00 0.000000e+00
1
Step 584000
Ar 7.997371e-01 0.000000e+00 0.000000e+00
1
Step 585000
Ar 7.923219e-01 0.000000e+00 0.000000e+00
1
Step 586000
Ar 7.985446e-01 0.000000e+00 0.000000e+00
1
Step 587000
Ar 7.967731e-01 0.000000e+00 0.000000e+00
1
Step 588000
Ar 7.955282e-01 0.000000e+00 0.000000e+00
1
Step 589000
Ar 7.877771e-01 0.000000e+00 0.000000e+00
1
Step 590000
Ar 1.107136e+00 0.000000e+00 0.000000e+00
1
Step 591000
Ar 1.028152e+00 0.000000e+00 0.000000e+00
1
Step 592000
Ar 1.069029e+00 0.000000e+00 0.000000e+00
1
Step 593000
Ar 8.801151e-01 0.000000e+00 0.000000e+00
1
Step 594000
Ar 7.464291e-01 0.000000e+00 0.000000e+00
1
Step 595000
Ar 5.380690e-01 0.000000e+00 0.000000e+00
1
Step 596000
Ar 1.227074e+00 0.000000e+00 0.000000e+00
1
Step 597000
Ar 1.057460e+00 0.000000e+00 0.000000e+00
1
Step 598000
Ar 1.230092e+00 0.000000e+00 0.000000e+00
1
Step 599000
Ar 5.780582e-01 0.000000e+00 0.000000e+00
1
Step 600000
Ar 9.788668e-01 0.000000e+00 0.000000e+00
1
Step 601000
Ar 9.912917e-01 0.000000e+00 0.000000e+00
1
Step 602000
Ar 9.463593e-01 0.000000e+00 0.000000e+00
1
Step 603000
Ar 8.953562e-01 0.000000e+00 0.000000e+00
1
Step 604000
Ar 1.069437e+00 0.000000e+00 0.000000e+00
1
Step 605000
Ar 7.915371e-01 0.000000e+00 0.000000e+00
1
Step 606000
Ar 4.167349e-01 0.000000e+00 0.000000e+00
1
Step 607000
Ar 6.494606e-01 0.000000e+00 0.000000e+00
1
Step 608000
Ar 8.264447e-01 0.000000e+00 0.000000e+00
1
Step 609000
Ar 1.094000e+00 0.000000e+00 0.000000e+00
1
Step 610000
Ar 1.130582e+00 0.000000e+00 0.000000e+00
1
Step 611000
Ar 9.201176e-01 0.000000e+00 0.000000e+00
1
Step 612000
Ar 1.168623e+00 0.000000e+00 0.000000e+00
1
Step 613000
Ar 1.072198e+00 0.000000e+00 0.000000e+00
1
Step 614000
Ar 5.875255e-01 0.000000e+00 0.000000e+00
1
Step 615000
Ar 6.840063e-01 0.000000e+00 0.000000e+00
1
Step 616000
Ar 6.120922e-01 0.000000e+00 0.000000e+00
1
Step 617000
Ar 1.343500e+00 0.000000e+00 0.000000e+00
1
Step 618000
Ar 1.151672e+00 0.000000e+00 0.000000e+00
1
Step 619000
Ar 1.054697e+00 0.000000e+00 0.000000e+00
1
Step 620000
Ar 1.135093e+00 0.000000e+00 0.000000e+00
1
Step 621000
Ar 9.578286e-01 0.000000e+00 0.000000e+00
1
Step 622000
Ar 1.012603e+00 0.000000e+00 0.000000e+00
1
Step 623000
Ar 8.988695e-01 0.000000e+00 0.000000e+00
1
Step 624000
Ar 8.786142e-01 0.000000e+00 0.000000e+00
1
Step 625000
Ar 7.196465e-01 0.000000e+00 0.000000e+00
1
Step 626000
Ar 9.547420e-01 0.000000e+00 0.000000e+00
1
Step 627000
Ar 6.576183e-01 0.000000e+00 0.000000e+00
1
Step 628000
Ar 6.636504e-01 0.000000e+00 0.000000e+00
1
Step 629000
Ar 8.852331e-01 0.000000e+00 0.000000e+00
1
Step 630000
Ar 9.299561e-01 0.000000e+00 0.000000e+00
1
Step 631000
Ar 6.757573e-01 0.000000e+00 0.000000e+00
1
Step 632000
Ar 1.065884e+00 0.000000e+00 0.000000e+00
1
Step 633000
Ar 9.623369e-01 0.000000e+00 0.000000e+00
1
Step 634000
Ar 8.853430e-01 0.000000e+00 0.000000e+00
1
Step 635000
Ar 1.097992e+00 0.000000e+00 0.000000e+00
1
Step 636000
Ar 1.102356e+00 0.000000e+00 0.000000e+00
1
Step 637000
Ar 1.065066e+00 0.000000e+00 0.000000e+00
1
Step 638000
Ar 7.834196e-01 0.000000e+00 0.000000e+00
1
Step 639000
Ar 1.066997e+00 0.000000e+00 0.000000e+00
1
Step 640000
Ar 8.454115e-01 0.000000e+00 0.000000e+00
1
Step 641000
Ar 6.320558e-01 0.000000e+00 0.000000e+00
1
Step 642000
Ar 6.892146e-01 0.000000e+00 0.000000e+00
1
Step 643000
Ar 8.333445e-01 0.000000e+00 0.000000e+00
1
Step 644000
Ar 1.120402e+00 0.000000e+00 0.000000e+00
1
Step 645000
Ar 1.058125e+00 0.000000e+00 0.000000e+00
1
Step 646000
Ar 1.111056e+00 0.000000e+00 0.000000e+00
1
Step 647000
Ar 1.142380e+00 0.000000e+00 0.000000e+00
1
Step 648000
Ar 9.998366e-01 0.000000e+00 0.000000e+00
1
Step 649000
Ar 1.399909e+00 0.000000e+00 0.000000e+00
1
Step 650000
Ar -1.002553e+00 0.000000e+00 0.000000e+00
1
Step 651000
Ar -9.907150e-01 0.000000e+00 0.000000e+00
1
Step 652000
Ar -9.746173e-01 0.000000e+00 0.000000e+00
1
Step 653000
Ar -1.014682e+00 0.000000e+00 0.000000e+00
1
Step 654000
Ar -1.004572e+00 0.000000e+00 0.000000e+00
1
Step 655000