1
Step 120000
Ar 7.524845e-01 0.000000e+00 0.000000e+00
1
Step 121000
Ar 1.100107e+00 0.000000e+00 0.000000e+00
1
Step 122000
Ar 1.029310e+00 0.000000e+00 0.000000e+00
1
Step 123000
Ar 1.129661e+00 0.000000e+00 0.000000e+00
1
Step 124000
Ar 9.941547e-01 0.000000e+00 0.000000e+00
1
Step 125000
Ar 1.076728e+00 0.000000e+00 0.000000e+00
1
Step 126000
Ar 9.153328e-01 0.000000e+00 0.000000e+00
1
Step 127000
Ar 7.379418e-01 0.000000e+00 0.000000e+00
1
Step 128000
Ar 9.317732e-01 0.000000e+00 0.000000e+00
1
Step 129000
Ar 9.249654e-01 0.000000e+00 0.000000e+00
1
Step 130000
Ar 9.549734e-01 0.000000e+00 0.000000e+00
1
Step 131000
Ar 9.193656e-01 0.000000e+00 0.000000e+00
1
Step 132000
Ar 9.371946e-01 0.000000e+00 0.000000e+00
1
Step 133000
Ar 9.077173e-01 0.000000e+00 0.000000e+00
1
Step 134000
Ar 6.044359e-01 0.000000e+00 0.000000e+00
1
Step 135000
Ar 8.457496e-01 0.000000e+00 0.000000e+00
1
Step 136000
Ar 8.082472e-01 0.000000e+00 0.000000e+00
1
Step 137000
Ar 8.330311e-01 0.000000e+00 0.000000e+00
1
Step 138000
Ar 8.017285e-01 0.000000e+00 0.000000e+00
1
Step 139000
Ar 6.281280e-01 0.000000e+00 0.000000e+00
1
Step 140000
Ar 8.638092e-01 0.000000e+00 0.000000e+00
1
Step 141000
Ar 8.632042e-01 0.000000e+00 0.000000e+00
1
Step 142000
Ar 8.381097e-01 0.000000e+00 0.000000e+00
1
Step 143000
Ar 7.115645e-01 0.000000e+00 0.000000e+00
1
Step 144000
Ar 7.964253e-01 0.000000e+00 0.000000e+00
1
Step 145000
Ar 7.674940e-01 0.000000e+00 0.000000e+00
1
Step 146000
Ar 8.132785e-01 0.000000e+00 0.000000e+00
1
Step 147000
Ar 8.281185e-01 0.000000e+00 0.000000e+00
1
Step 148000
Ar 7.855413e-01 0.000000e+00 0.000000e+00
1
Step 149000
Ar 7.560203e-01 0.000000e+00 0.000000e+00
1
Step 150000
Ar 8.077339e-01 0.000000e+00 0.000000e+00
1
Step 151000
Ar 8.279362e-01 0.000000e+00 0.000000e+00
1
Step 152000
Ar 7.748154e-01 0.000000e+00 0.000000e+00
1
Step 153000
Ar 7.529991e-01 0.000000e+00 0.000000e+00
1
Step 154000
Ar 7.877600e-01 0.000000e+00 0.000000e+00
1
Step 155000
Ar 7.789590e-01 0.000000e+00 0.000000e+00
1
Step 156000
Ar 8.067615e-01 0.000000e+00 0.000000e+00
1
Step 157000
Ar 8.203728e-01 0.000000e+00 0.000000e+00
1
Step 158000
Ar 8.338135e-01 0.000000e+00 0.000000e+00
1
Step 159000
Ar 8.167415e-01 0.000000e+00 0.000000e+00
1
Step 160000
Ar 8.169560e-01 0.000000e+00 0.000000e+00
1
Step 161000
Ar 8.197979e-01 0.000000e+00 0.000000e+00
1
Step 162000
Ar 8.248680e-01 0.000000e+00 0.000000e+00
1
Step 163000
Ar 8.330995e-01 0.000000e+00 0.000000e+00
1
Step 164000
Ar 7.479279e-01 0.000000e+00 0.000000e+00
1
Step 165000
Ar 7.308849e-01 0.000000e+00 0.000000e+00
1
Step 166000
Ar 8.937218e-01 0.000000e+00 0.000000e+00
1
Step 167000
Ar 8.598088e-01 0.000000e+00 0.000000e+00
1
Step 168000
Ar 8.687381e-01 0.000000e+00 0.000000e+00
1
Step 169000
Ar 8.585127e-01 0.000000e+00 0.000000e+00
1
Step 170000
Ar 8.667978e-01 0.000000e+00 0.000000e+00
1
Step 171000
Ar 8.655436e-01 0.000000e+00 0.000000e+00
1
Step 172000
Ar 5.540843e-01 0.000000e+00 0.000000e+00
1
Step 173000
Ar 6.547373e-01 0.000000e+00 0.000000e+00
1
Step 174000
Ar 6.904170e-01 0.000000e+00 0.000000e+00
1
Step 175000
Ar 6.641866e-01 0.000000e+00 0.000000e+00
1
Step 176000
Ar 6.946438e-01 0.000000e+00 0.000000e+00
1
Step 177000
Ar 6.374674e-01 0.000000e+00 0.000000e+00
1
Step 178000
Ar 6.907197e-01 0.000000e+00 0.000000e+00
1
Step 179000
Ar 6.808799e-01 0.000000e+00 0.000000e+00
1
Step 180000
Ar 6.902652e-01 0.000000e+00 0.000000e+00
1
Step 181000
Ar 6.657327e-01 0.000000e+00 0.000000e+00
1
Step 182000
Ar 6.426437e-01 0.000000e+00 0.000000e+00
1
Step 183000
Ar 6.534046e-01 0.000000e+00 0.000000e+00
1
Step 184000
Ar 6.474935e-01 0.000000e+00 0.000000e+00
1
Step 185000
Ar 6.491250e-01 0.000000e+00 0.000000e+00
1
Step 186000
Ar 6.479010e-01 0.000000e+00 0.000000e+00
1
Step 187000
Ar 6.393192e-01 0.000000e+00 0.000000e+00
1
Step 188000
Ar 6.629676e-01 0.000000e+00 0.000000e+00
1
Step 189000
Ar 6.374807e-01 0.000000e+00 0.000000e+00
1
Step 190000
Ar 6.380988e-01 0.000000e+00 0.000000e+00
1
Step 191000
Ar 6.465283e-01 0.000000e+00 0.000000e+00
1
Step 192000
Ar 6.381763e-01 0.000000e+00 0.000000e+00
1
Step 193000
Ar 6.377294e-01 0.000000e+00 0.000000e+00
1
Step 194000
Ar 6.427999e-01 0.000000e+00 0.000000e+00
1
Step 195000
Ar 6.357676e-01 0.000000e+00 0.000000e+00
1
Step 196000
Ar 6.388799e-01 0.000000e+00 0.000000e+00
1
Step 197000
Ar 6.398152e-01 0.000000e+00 0.000000e+00
1
Step 198000
Ar 6.416347e-01 0.000000e+00 0.000000e+00
1
Step 199000
Ar 4.797969e-01 0.000000e+00 0.000000e+00
1
Step 200000
Ar 5.826584e-01 0.000000e+00 0.000000e+00
1
Step 201000
Ar 6.105340e-01 0.000000e+00 0.000000e+00
1
Step 202000
Ar 6.091170e-01 0.000000e+00 0.000000e+00
1
Step 203000
Ar 4.340599e-01 0.000000e+00 0.000000e+00
1
Step 204000
Ar 5.715885e-01 0.000000e+00 0.000000e+00
1
Step 205000
Ar 5.728801e-01 0.000000e+00 0.000000e+00
1
Step 206000
Ar 3.574142e-01 0.000000e+00 0.000000e+00
1
Step 207000
Ar 5.275371e-01 0.000000e+00 0.000000e+00
1
Step 208000
Ar 4.970794e-01 0.000000e+00 0.000000e+00
1
Step 209000
Ar 5.317177e-01 0.000000e+00 0.000000e+00
1
Step 210000
Ar 4.994378e-01 0.000000e+00 0.000000e+00
1
Step 211000
Ar 5.189793e-01 0.000000e+00 0.000000e+00
1
Step 212000
Ar 4.977016e-01 0.000000e+00 0.000000e+00
1
Step 213000
Ar 4.946482e-01 0.000000e+00 0.000000e+00
1
Step 214000
Ar 5.003110e-01 0.000000e+00 0.000000e+00
1
Step 215000
Ar 5.120825e-01 0.000000e+00 0.000000e+00
1
Step 216000
Ar 5.064533e-01 0.000000e+00 0.000000e+00
1
Step 217000
Ar 5.382231e-01 0.000000e+00 0.000000e+00
1
Step 218000
Ar 5.381946e-01 0.000000e+00 0.000000e+00
1
Step 219000
Ar 5.377034e-01 0.000000e+00 0.000000e+00
1
Step 220000
Ar 5.390554e-01 0.000000e+00 0.000000e+00
1
Step 221000
Ar 5.366666e-01 0.000000e+00 0.000000e+00
1
Step 222000
Ar 5.425698e-01 0.000000e+00 0.000000e+00
1
Step 223000
Ar 5.394557e-01 0.000000e+00 0.000000e+00
1
Step 224000
Ar 5.411733e-01 0.000000e+00 0.000000e+00
1
Step 225000
Ar 5.382349e-01 0.000000e+00 0.000000e+00
1
Step 226000
Ar 5.377318e-01 0.000000e+00 0.000000e+00
1
Step 227000
Ar 5.404378e-01 0.000000e+00 0.000000e+00
1
Step 228000
Ar 5.408457e-01 0.000000e+00 0.000000e+00
1
Step 229000
Ar 5.412836e-01 0.000000e+00 0.000000e+00
1
Step 230000
Ar 5.424861e-01 0.000000e+00 0.000000e+00
1
Step 231000
Ar 5.387413e-01 0.000000e+00 0.000000e+00
1
Step 232000
Ar -8.275798e-01 0.000000e+00 0.000000e+00
1
Step 233000
Ar -1.057053e+00 0.000000e+00 0.000000e+00
1
Step 234000
Ar -1.134177e+00 0.000000e+00 0.000000e+00
1
Step 235000
Ar -1.101979e+00 0.000000e+00 0.000000e+00
1
Step 236000
Ar -1.078366e+00 0.000000e+00 0.000000e+00
1
Step 237000
Ar -1.064216e+00 0.000000e+00 0.000000e+00
1
Step 238000
Ar -1.076600e+00 0.000000e+00 0.000000e+00
1
Step 239000
Ar -1.108119e+00 0.000000e+00 0.000000e+00
1
Step 240000
Ar -1.081718e+00 0.000000e+00 0.000000e+00
1
Step 241000
Ar -1.093632e+00 0.000000e+00 0.000000e+00
1
Step 242000
Ar -1.081783e+00 0.000000e+00 0.000000e+00
1
Step 243000
Ar -1.085909e+00 0.000000e+00 0.000000e+00
1
Step 244000
Ar -1.090840e+00 0.000000e+00 0.000000e+00
1
Step 245000
Ar -1.099028e+00 0.000000e+00 0.000000e+00
1
Step 246000
Ar -1.109333e+00 0.000000e+00 0.000000e+00
1
Step 247000
Ar -1.147462e+00 0.000000e+00 0.000000e+00
1
Step 248000
Ar -1.167743e+00 0.000000e+00 0.000000e+00
1
Step 249000
Ar -1.302230e+00 0.000000e+00 0.000000e+00
1
Step 250000
Ar -1.164140e+00 0.000000e+00 0.000000e+00
1
Step 251000
Ar -1.172798e+00 0.000000e+00 0.000000e+00
1
Step 252000
Ar -1.132509e+00 0.000000e+00 0.000000e+00
1
Step 253000
Ar -1.135947e+00 0.000000e+00 0.000000e+00
1
Step 254000
Ar -1.131654e+00 0.000000e+00 0.000000e+00
1
Step 255000
Ar -1.131637e+00 0.000000e+00 0.000000e+00
1
Step 256000
Ar -8.940668e-01 0.000000e+00 0.000000e+00
1
Step 257000
Ar -9.650805e-01 0.000000e+00 0.000000e+00
1
Step 258000
Ar -8.254028e-01 0.000000e+00 0.000000e+00
1
Step 259000
Ar -9.509619e-01 0.000000e+00 0.000000e+00
1
Step 260000
Ar -7.522061e-01 0.000000e+00 0.000000e+00
1
Step 261000
Ar -8.059737e-01 0.000000e+00 0.000000e+00
1
Step 262000
Ar -8.612552e-01 0.000000e+00 0.000000e+00
1
Step 263000
Ar -9.935402e-01 0.000000e+00 0.000000e+00
1
Step 264000
Ar -8.345668e-01 0.000000e+00 0.000000e+00
1
Step 265000
Ar -8.970255e-01 0.000000e+00 0.000000e+00
1
Step 266000
Ar -8.060813e-01 0.000000e+00 0.000000e+00
1
Step 267000
Ar -7.495445e-01 0.000000e+00 0.000000e+00
1
Step 268000
Ar -7.700919e-01 0.000000e+00 0.000000e+00
1
Step 269000
Ar -7.853138e-01 0.000000e+00 0.000000e+00
1
Step 270000
Ar -7.972676e-01 0.000000e+00 0.000000e+00
1
Step 271000
Ar -7.895141e-01 0.000000e+00 0.000000e+00
1
Step 272000
Ar -8.615502e-01 0.000000e+00 0.000000e+00
1
Step 273000
Ar -1.012772e+00 0.000000e+00 0.000000e+00
1
Step 274000
Ar -9.580034e-01 0.000000e+00 0.000000e+00
1
Step 275000
Ar -9.536732e-01 0.000000e+00 0.000000e+00
1
Step 276000
Ar -9.872017e-01 0.000000e+00 0.000000e+00
1
Step 277000
Ar -9.883941e-01 0.000000e+00 0.000000e+00
1
Step 278000
Ar -1.002920e+00 0.000000e+00 0.000000e+00
1
Step 279000
Ar -9.837939e-01 0.000000e+00 0.000000e+00
1
Step 280000
Ar -9.617671e-01 0.000000e+00 0.000000e+00
1
Step 281000
Ar -9.103047e-01 0.000000e+00 0.000000e+00
1
Step 282000
Ar -9.890389e-01 0.000000e+00 0.000000e+00
1
Step 283000
Ar -1.039116e+00 0.000000e+00 0.000000e+00
1
Step 284000
Ar -1.037462e+00 0.000000e+00 0.000000e+00
1
Step 285000
Ar -9.781204e-01 0.000000e+00 0.000000e+00
1
Step 286000
Ar -8.928159e-01 0.000000e+00 0.000000e+00
1
Step 287000
Ar -9.036043e-01 0.000000e+00 0.000000e+00
1
Step 288000
Ar -9.588331e-01 0.000000e+00 0.000000e+00
1
Step 289000
Ar -9.412825e-01 0.000000e+00 0.000000e+00
1
Step 290000
Ar -8.683688e-01 0.000000e+00 0.000000e+00
1
Step 291000
Ar -9.765044e-01 0.000000e+00 0.000000e+00
1
Step 292000
Ar -9.939862e-01 0.000000e+00 0.000000e+00
1
Step 293000
Ar -8.652868e-01 0.000000e+00 0.000000e+00
1
Step 294000
Ar -9.401523e-01 0.000000e+00 0.000000e+00
1
Step 295000
Ar -9.125446e-01 0.000000e+00 0.000000e+00
1
Step 296000
Ar -8.616076e-01 0.000000e+00 0.000000e+00
1
Step 297000
Ar -8.586029e-01 0.000000e+00 0.000000e+00
1
Step 298000
Ar -8.621644e-01 0.000000e+00 0.000000e+00
1
Step 299000
Ar -8.614310e-01 0.000000e+00 0.000000e+00
1
Step 300000
Ar -8.571869e-01 0.000000e+00 0.000000e+00
1
Step 301000
Ar -6.787268e-01 0.000000e+00 0.000000e+00
1
Step 302000
Ar -6.768028e-01 0.000000e+00 0.000000e+00
1
Step 303000
Ar -5.023588e-01 0.000000e+00 0.000000e+00
1
Step 304000
Ar -7.142001e-01 0.000000e+00 0.000000e+00
1
Step 305000
Ar -6.706196e-01 0.000000e+00 0.000000e+00
1
Step 306000
Ar -6.212822e-01 0.000000e+00 0.000000e+00
1
Step 307000
Ar -7.260611e-01 0.000000e+00 0.000000e+00
1
Step 308000
Ar -7.123402e-01 0.000000e+00 0.000000e+00
1
Step 309000
Ar -6.821876e-01 0.000000e+00 0.000000e+00
1
Step 310000
Ar -7.036765e-01 0.000000e+00 0.000000e+00
1
Step 311000
Ar -6.840860e-01 0.000000e+00 0.000000e+00
1
Step 312000
Ar -7.259730e-01 0.000000e+00 0.000000e+00
1
Step 313000
Ar -7.216629e-01 0.000000e+00 0.000000e+00
1
Step 314000
Ar -7.090771e-01 0.000000e+00 0.000000e+00
1
Step 315000
Ar -7.147459e-01 0.000000e+00 0.000000e+00
1
Step 316000
Ar -6.820633e-01 0.000000e+00 0.000000e+00
1
Step 317000
Ar -6.390727e-01 0.000000e+00 0.000000e+00
1
Step 318000
Ar 4.494079e-01 0.000000e+00 0.000000e+00
1
Step 319000
Ar 4.618681e-01 0.000000e+00 0.000000e+00
1
Step 320000
Ar -5.729544e-01 0.000000e+00 0.000000e+00
1
Step 321000
Ar -4.531658e-01 0.000000e+00 0.000000e+00
1
Step 322000
Ar -5.546921e-01 0.000000e+00 0.000000e+00
1
Step 323000
Ar -5.474946e-01 0.000000e+00 0.000000e+00
1
Step 324000
Ar -5.546596e-01 0.000000e+00 0.000000e+00
1
Step 325000
Ar -5.223642e-01 0.000000e+00 0.000000e+00
1
Step 326000
Ar -4.204834e-01 0.000000e+00 0.000000e+00
1
Step 327000
Ar -5.312668e-01 0.000000e+00 0.000000e+00
1
Step 328000
Ar -5.423771e-01 0.000000e+00 0.000000e+00
1
Step 329000
Ar -5.485366e-01 0.000000e+00 0.000000e+00
1
Step 330000
Ar -4.091572e-01 0.000000e+00 0.000000e+00
1
Step 331000
Ar -4.229700e-01 0.000000e+00 0.000000e+00
1
Step 332000
Ar -4.326736e-01 0.000000e+00 0.000000e+00
1
Step 333000
Ar -3.772510e-01 0.000000e+00 0.000000e+00
1
Step 334000
Ar -3.981341e-01 0.000000e+00 0.000000e+00
1
Step 335000
Ar -4.244132e-01 0.000000e+00 0.000000e+00
1
Step 336000
Ar -3.569085e-01 0.000000e+00 0.000000e+00
1
Step 337000
Ar -3.998895e-01 0.000000e+00 0.000000e+00
1
Step 338000
Ar -3.674088e-01 0.000000e+00 0.000000e+00
1
Step 339000
Ar -3.699746e-01 0.000000e+00 0.000000e+00
1
Step 340000
Ar -3.563312e-01 0.000000e+00 0.000000e+00
1
Step 341000
Ar -4.039380e-01 0.000000e+00 0.000000e+00
1
Step 342000
Ar -3.816021e-01 0.000000e+00 0.000000e+00
1
Step 343000
Ar -4.066516e-01 0.000000e+00 0.000000e+00
1
Step 344000
Ar -3.651812e-01 0.000000e+00 0.000000e+00
1
Step 345000
Ar -4.043213e-01 0.000000e+00 0.000000e+00
1
Step 346000
Ar -3.856689e-01 0.000000e+00 0.000000e+00
1
Step 347000
Ar -3.928208e-01 0.000000e+00 0.000000e+00
1
Step 348000
Ar 4.108566e-01 0.000000e+00 0.000000e+00
1
Step 349000
Ar 4.101810e-01 0.000000e+00 0.000000e+00
1
Step 350000
Ar 3.426519e-01 0.000000e+00 0.000000e+00
1
Step 351000
Ar 3.947581e-01 0.000000e+00 0.000000e+00
1
Step 352000
Ar 3.960226e-01 0.000000e+00 0.000000e+00
1
Step 353000
Ar 3.137936e-01 0.000000e+00 0.000000e+00
1
Step 354000
Ar 3.540683e-01 0.000000e+00 0.000000e+00
1
Step 355000
Ar 2.561397e-01 0.000000e+00 0.000000e+00
1
Step 356000
Ar 4.183590e-01 0.000000e+00 0.000000e+00
1
Step 357000
Ar 4.792922e-01 0.000000e+00 0.000000e+00
1
Step 358000
Ar 5.165554e-01 0.000000e+00 0.000000e+00
1
Step 359000
Ar 5.198024e-01 0.000000e+00 0.000000e+00
1
Step 360000
Ar 5.067213e-01 0.000000e+00 0.000000e+00
1
Step 361000
Ar 5.130608e-01 0.000000e+00 0.000000e+00
1
Step 362000
Ar 5.029865e-01 0.000000e+00 0.000000e+00
1
Step 363000
Ar 5.031145e-01 0.000000e+00 0.000000e+00
1
Step 364000
Ar 5.026582e-01 0.000000e+00 0.000000e+00
1
Step 365000
Ar 5.162756e-01 0.000000e+00 0.000000e+00
1
Step 366000
Ar 5.093829e-01 0.000000e+00 0.000000e+00
1
Step 367000
Ar 5.093329e-01 0.000000e+00 0.000000e+00
1
Step 368000
Ar 5.031578e-01 0.000000e+00 0.000000e+00
1
Step 369000
Ar 5.037882e-01 0.000000e+00 0.000000e+00
1
Step 370000
Ar 5.056710e-01 0.000000e+00 0.000000e+00
1
Step 371000
Ar 5.338125e-01 0.000000e+00 0.000000e+00
1
Step 372000
Ar 2.920473e-01 0.000000e+00 0.000000e+00
1
Step 373000
Ar -1.015756e-01 0.000000e+00 0.000000e+00
1
Step 374000
Ar -1.271044e-01 0.000000e+00 0.000000e+00
1
Step 375000
Ar -3.097103e-01 0.000000e+00 0.000000e+00
1
Step 376000
Ar -3.109171e-01 0.000000e+00 0.000000e+00
1
Step 377000
Ar -3.125720e-01 0.000000e+00 0.000000e+00
1
Step 378000
Ar -3.015952e-01 0.000000e+00 0.000000e+00
1
Step 379000
Ar -3.119275e-01 0.000000e+00 0.000000e+00
1
Step 380000
Ar -3.129670e-01 0.000000e+00 0.000000e+00
1
Step 381000
Ar -2.919450e-01 0.000000e+00 0.000000e+00
1
Step 382000
Ar -5.316111e-01 0.000000e+00 0.000000e+00
1
Step 383000
Ar -5.662035e-01 0.000000e+00 0.000000e+00
1
Step 384000
Ar -5.342671e-01 0.000000e+00 0.000000e+00
1
Step 385000
Ar -1.001453e+00 0.000000e+00 0.000000e+00
1
Step 386000
Ar -9.720704e-01 0.000000e+00 0.000000e+00
1
Step 387000
Ar -9.235195e-01 0.000000e+00 0.000000e+00
1
Step 388000
Ar -8.985691e-01 0.000000e+00 0.000000e+00
1
Step 389000
Ar -9.640751e-01 0.000000e+00 0.000000e+00
1
Step 390000
Ar -9.581419e-01 0.000000e+00 0.000000e+00
1
Step 391000
Ar -9.662432e-01 0.000000e+00 0.000000e+00
1
Step 392000
Ar -9.327557e-01 0.000000e+00 0.000000e+00
1
Step 393000
Ar -9.092622e-01 0.000000e+00 0.000000e+00
1
Step 394000
Ar -8.842321e-01 0.000000e+00 0.000000e+00
1
Step 395000
Ar -8.863582e-01 0.000000e+00 0.000000e+00
1
Step 396000
Ar -9.404764e-01 0.000000e+00 0.000000e+00
1
Step 397000
Ar -9.035073e-01 0.000000e+00 0.000000e+00
1
Step 398000
Ar -9.345375e-01 0.000000e+00 0.000000e+00
1
Step 399000
Ar -9.337899e-01 0.000000e+00 0.000000e+00
1
Step 400000
Ar -9.334807e-01 0.000000e+00 0.000000e+00
1
Step 401000
Ar -9.196250e-01 0.000000e+00 0.000000e+00
1
Step 402000
Ar -9.303299e-01 0.000000e+00 0.000000e+00
1
Step 403000
Ar -9.467816e-01 0.000000e+00 0.000000e+00
1
Step 404000
Ar -8.980937e-01 0.000000e+00 0.000000e+00
1
Step 405000
Ar -9.989600e-01 0.000000e+00 0.000000e+00
1
Step 406000
Ar -9.782993e-01 0.000000e+00 0.000000e+00
1
Step 407000
Ar -9.985581e-01 0.000000e+00 0.000000e+00
1
Step 408000
Ar -1.020971e+00 0.000000e+00 0.000000e+00
1
Step 409000
Ar -9.694716e-01 0.000000e+00 0.000000e+00
1
Step 410000
Ar -9.678040e-01 0.000000e+00 0.000000e+00
1
Step 411000
Ar -9.684594e-01 0.000000e+00 0.000000e+00
1
Step 412000
Ar -9.643096e-01 0.000000e+00 0.000000e+00
1
Step 413000
Ar -9.679616e-01 0.000000e+00 0.000000e+00
1
Step 414000
Ar -9.740400e-01 0.000000e+00 0.000000e+00
1
Step 415000
Ar -9.685534e-01 0.000000e+00 0.000000e+00
1
Step 416000
Ar -9.708870e-01 0.000000e+00 0.000000e+00
1
Step 417000
Ar -9.718820e-01 0.000000e+00 0.000000e+00
1
Step 418000
Ar -9.709240e-01 0.000000e+00 0.000000e+00
1
Step 419000
Ar -9.696221e-01 0.000000e+00 0.000000e+00
1
Step 420000
Ar -9.716794e-01 0.000000e+00 0.000000e+00
1
Step 421000
Ar -9.703425e-01 0.000000e+00 0.000000e+00
1
Step 422000
Ar -9.734084e-01 0.000000e+00 0.000000e+00
1
Step 423000
Ar -9.704668e-01 0.000000e+00 0.000000e+00
1
Step 424000
Ar -9.685767e-01 0.000000e+00 0.000000e+00
1
Step 425000
Ar -9.709150e-01 0.000000e+00 0.000000e+00
1
Step 426000
Ar -9.705713e-01 0.000000e+00 0.000000e+00
1
Step 427000
Ar -9.737853e-01 0.000000e+00 0.000000e+00
1
Step 428000
Ar -9.699729e-01 0.000000e+00 0.000000e+00
1
Step 429000
Ar -9.711488e-01 0.000000e+00 0.000000e+00
1
Step 430000
Ar -9.681896e-01 0.000000e+00 0.000000e+00
1
Step 431000
Ar -9.683381e-01 0.000000e+00 0.000000e+00
1
Step 432000
Ar -9.727043e-01 0.000000e+00 0.000000e+00
1
Step 433000
Ar -9.719858e-01 0.000000e+00 0.000000e+00
1
Step 434000
Ar -9.749106e-01 0.000000e+00 0.000000e+00
1
Step 435000
Ar -9.743762e-01 0.000000e+00 0.000000e+00
1
Step 436000
Ar -9.651785e-01 0.000000e+00 0.000000e+00
1
Step 437000
Ar -9.718605e-01 0.000000e+00 0.000000e+00
1
Step 438000
Ar -9.722173e-01 0.000000e+00 0.000000e+00
1
Step 439000
Ar -9.655880e-01 0.000000e+00 0.000000e+00
1
Step 440000
Ar -9.675438e-01 0.000000e+00 0.000000e+00
1
Step 441000
Ar -9.758971e-01 0.000000e+00 0.000000e+00
1
Step 442000
Ar -9.696782e-01 0.000000e+00 0.000000e+00
1
Step 443000
Ar -8.015286e-01 0.000000e+00 0.000000e+00
1
Step 444000
Ar -8.022885e-01 0.000000e+00 0.000000e+00
1
Step 445000
Ar -8.000776e-01 0.000000e+00 0.000000e+00
1
Step 446000
Ar -7.951885e-01 0.000000e+00 0.000000e+00
1
Step 447000
Ar -8.510204e-01 0.000000e+00 0.000000e+00
1
Step 448000
Ar -8.902495e-01 0.000000e+00 0.000000e+00
1
Step 449000
Ar -8.894898e-01 0.000000e+00 0.000000e+00
1
Step 450000
Ar -1.110989e+00 0.000000e+00 0.000000e+00
1
Step 451000
Ar -1.113172e+00 0.000000e+00 0.000000e+00
1
Step 452000
Ar -1.057422e+00 0.000000e+00 0.000000e+00
1
Step 453000
Ar -1.108411e+00 0.000000e+00 0.000000e+00
1
Step 454000
Ar -1.112151e+00 0.000000e+00 0.000000e+00
1
Step 455000
Ar -1.106503e+00 0.000000e+00 0.000000e+00
1
Step 456000
Ar -1.108818e+00 0.000000e+00 0.000000e+00
1
Step 457000
Ar -1.107710e+00 0.000000e+00 0.000000e+00
1
Step 458000
Ar -1.107901e+00 0.000000e+00 0.000000e+00
1
Step 459000
Ar -1.112223e+00 0.000000e+00 0.000000e+00
1
Step 460000
Ar -1.107450e+00 0.000000e+00 0.000000e+00
1
Step 461000
Ar -1.085968e+00 0.000000e+00 0.000000e+00
1
Step 462000
Ar -9.939608e-01 0.000000e+00 0.000000e+00
1
Step 463000
Ar -9.119440e-01 0.000000e+00 0.000000e+00
1
Step 464000
Ar -9.183071e-01 0.000000e+00 0.000000e+00
1
Step 465000
Ar -9.215511e-01 0.000000e+00 0.000000e+00
1
Step 466000
Ar -9.179741e-01 0.000000e+00 0.000000e+00
1
Step 467000
Ar -9.131371e-01 0.000000e+00 0.000000e+00
1
Step 468000
Ar -9.196060e-01 0.000000e+00 0.000000e+00
1
Step 469000
Ar -9.192020e-01 0.000000e+00 0.000000e+00
1
Step 470000
Ar -9.119047e-01 0.000000e+00 0.000000e+00
1
Step 471000
Ar -8.229554e-01 0.000000e+00 0.000000e+00
1
Step 472000
Ar -8.279174e-01 0.000000e+00 0.000000e+00
1
Step 473000
Ar -8.250419e-01 0.000000e+00 0.000000e+00
1
Step 474000
Ar -8.256248e-01 0.000000e+00 0.000000e+00
1
Step 475000
Ar -8.251239e-01 0.000000e+00 0.000000e+00
1
Step 476000
Ar -1.005507e+00 0.000000e+00 0.000000e+00
1
Step 477000
Ar -3.923609e-01 0.000000e+00 0.000000e+00
1
Step 478000
Ar -3.617263e-01 0.000000e+00 0.000000e+00
1
Step 479000
Ar -3.989654e-01 0.000000e+00 0.000000e+00
1
Step 480000
Ar -3.695493e-01 0.000000e+00 0.000000e+00
1
Step 481000
Ar -3.858688e-01 0.000000e+00 0.000000e+00
1
Step 482000
Ar -3.638197e-01 0.000000e+00 0.000000e+00
1
Step 483000
Ar -3.884107e-01 0.000000e+00 0.000000e+00
1
Step 484000
Ar -3.867741e-01 0.000000e+00 0.000000e+00
1
Step 485000
Ar -3.862210e-01 0.000000e+00 0.000000e+00
1
Step 486000
Ar -3.896464e-01 0.000000e+00 0.000000e+00
1
Step 487000
Ar -3.818722e-01 0.000000e+00 0.000000e+00
1
Step 488000
Ar -5.168181e-01 0.000000e+00 0.000000e+00
1
Step 489000
Ar -5.138984e-01 0.000000e+00 0.000000e+00
1
Step 490000
Ar -5.422944e-01 0.000000e+00 0.000000e+00
1
Step 491000
Ar -5.251880e-01 0.000000e+00 0.000000e+00
1
Step 492000
Ar -4.989538e-01 0.000000e+00 0.000000e+00
1
Step 493000
Ar -4.908321e-01 0.000000e+00 0.000000e+00
1
Step 494000
Ar -4.810483e-01 0.000000e+00 0.000000e+00
1
Step 495000
Ar -4.857874e-01 0.000000e+00 0.000000e+00
1
Step 496000
Ar -4.798517e-01 0.000000e+00 0.000000e+00
1
Step 497000
Ar -4.697655e-01 0.000000e+00 0.000000e+00
1
Step 498000
Ar -4.904817e-01 0.000000e+00 0.000000e+00
1
Step 499000
Ar -4.835557e-01 0.000000e+00 0.000000e+00
1
Step 500000
Ar -4.611398e-01 0.000000e+00 0.000000e+00
1
Step 501000
Ar -4.906667e-01 0.000000e+00 0.000000e+00
1
Step 502000
Ar -4.656170e-01 0.000000e+00 0.000000e+00
1
Step 503000
Ar -1.168061e+00 0.000000e+00 0.000000e+00
1
Step 504000
Ar -1.168443e+00 0.000000e+00 0.000000e+00
1
Step 505000
Ar -1.231863e+00 0.000000e+00 0.000000e+00
1
Step 506000
Ar -1.163208e+00 0.000000e+00 0.000000e+00
1
Step 507000
Ar -1.161156e+00 0.000000e+00 0.000000e+00
1
Step 508000
Ar -1.225307e+00 0.000000e+00 0.000000e+00
1
Step 509000
Ar -1.198252e+00 0.000000e+00 0.000000e+00
1
Step 510000
Ar -1.219423e+00 0.000000e+00 0.000000e+00
1
Step 511000
Ar -1.206408e+00 0.000000e+00 0.000000e+00
1
Step 512000
Ar -1.174920e+00 0.000000e+00 0.000000e+00
1
Step 513000
Ar -1.231818e+00 0.000000e+00 0.000000e+00
1
Step 514000
Ar -1.211409e+00 0.000000e+00 0.000000e+00
1
Step 515000
Ar -1.250409e+00 0.000000e+00 0.000000e+00
1
Step 516000
Ar -1.217793e+00 0.000000e+00 0.000000e+00
1
Step 517000
Ar -1.215411e+00 0.000000e+00 0.000000e+00
1
Step 518000
Ar -1.225309e+00 0.000000e+00 0.000000e+00
1
Step 519000
Ar -1.238913e+00 0.000000e+00 0.000000e+00
1
Step 520000
Ar -1.315855e+00 0.000000e+00 0.000000e+00
1
Step 521000
Ar -1.220920e+00 0.000000e+00 0.000000e+00
1
Step 522000
Ar -1.267228e+00 0.000000e+00 0.000000e+00
1
Step 523000
Ar -1.330009e+00 0.000000e+00 0.000000e+00
1
Step 524000
Ar -1.333219e+00 0.000000e+00 0.000000e+00
1
Step 525000
Ar -1.338326e+00 0.000000e+00 0.000000e+00
1
Step 526000
Ar -1.328136e+00 0.000000e+00 0.000000e+00
1
Step 527000
Ar -1.284172e+00 0.000000e+00 0.000000e+00
1
Step 528000
Ar -1.280216e+00 0.000000e+00 0.000000e+00
1
Step 529000
Ar -1.280560e+00 0.000000e+00 0.000000e+00
1
Step 530000
Ar -1.279003e+00 0.000000e+00 0.000000e+00
1
Step 531000
Ar -1.285311e+00 0.000000e+00 0.000000e+00
1
Step 532000
Ar -1.314031e+00 0.000000e+00 0.000000e+00
1
Step 533000
Ar -1.309181e+00 0.000000e+00 0.000000e+00
1
Step 534000
Ar -1.311308e+00 0.000000e+00 0.000000e+00
1
Step 535000
Ar -1.312229e+00 0.000000e+00 0.000000e+00
1
Step 536000
Ar -5.453552e-01 0.000000e+00 0.000000e+00
1
Step 537000
Ar -5.453600e-01 0.000000e+00 0.000000e+00
1
Step 538000
Ar -5.736420e-01 0.000000e+00 0.000000e+00
1
Step 539000
Ar -6.461663e-01 0.000000e+00 0.000000e+00
1
Step 540000
Ar -7.608387e-01 0.000000e+00 0.000000e+00
1
Step 541000
Ar -7.599772e-01 0.000000e+00 0.000000e+00
1
Step 542000
Ar -7.083769e-01 0.000000e+00 0.000000e+00
1
Step 543000
Ar -7.080998e-01 0.000000e+00 0.000000e+00
1
Step 544000
Ar -7.341165e-01 0.000000e+00 0.000000e+00
1
Step 545000
Ar -7.352635e-01 0.000000e+00 0.000000e+00
1
Step 546000
Ar -6.348790e-01 0.000000e+00 0.000000e+00
1
Step 547000
Ar -6.147834e-01 0.000000e+00 0.000000e+00
1
Step 548000
Ar -6.191302e-01 0.000000e+00 0.000000e+00
1
Step 549000
Ar -6.163309e-01 0.000000e+00 0.000000e+00
1
Step 550000
Ar -6.151543e-01 0.000000e+00 0.000000e+00
1
Step 551000
Ar -6.121681e-01 0.000000e+00 0.000000e+00
1
Step 552000
Ar -6.042691e-01 0.000000e+00 0.000000e+00
1
Step 553000
Ar -6.093725e-01 0.000000e+00 0.000000e+00
1
Step 554000
Ar -6.126567e-01 0.000000e+00 0.000000e+00
1
Step 555000
Ar -6.130565e-01 0.000000e+00 0.000000e+00
1
Step 556000
Ar -6.141205e-01 0.000000e+00 0.000000e+00
1
Step 557000
Ar -6.192627e-01 0.000000e+00 0.000000e+00
1
Step 558000
Ar -6.117460e-01 0.000000e+00 0.000000e+00
1
Step 559000
Ar -6.127203e-01 0.000000e+00 0.000000e+00
1
Step 560000
Ar -6.071452e-01 0.000000e+00 0.000000e+00
1
Step 561000
Ar -6.111295e-01 0.000000e+00 0.000000e+00
1
Step 562000
Ar -6.116984e-01 0.000000e+00 0.000000e+00
1
Step 563000
Ar -6.142881e-01 0.000000e+00 0.000000e+00
1
Step 564000
Ar -6.111250e-01 0.000000e+00 0.000000e+00
1
Step 565000
Ar -6.149403e-01 0.000000e+00 0.000000e+00
1
Step 566000
Ar -6.116083e-01 0.000000e+00 0.000000e+00
1
Step 567000
Ar -4.530701e-01 0.000000e+00 0.000000e+00
1
Step 568000
Ar -4.636319e-01 0.000000e+00 0.000000e+00
1
Step 569000
Ar -4.701351e-01 0.000000e+00 0.000000e+00
1
Step 570000
Ar -4.713538e-01 0.000000e+00 0.000000e+00
1
Step 571000
Ar -4.727203e-01 0.000000e+00 0.000000e+00
1
Step 572000
Ar -4.658050e-01 0.000000e+00 0.000000e+00
1
Step 573000
Ar -4.612185e-01 0.000000e+00 0.000000e+00
1
Step 574000
Ar 2.668997e-01 0.000000e+00 0.000000e+00
1
Step 575000
Ar 2.889028e-01 0.000000e+00 0.000000e+00
1
Step 576000
Ar 3.856806e-01 0.000000e+00 0.000000e+00
1
Step 577000
Ar 3.743337e-01 0.000000e+00 0.000000e+00
1
Step 578000
Ar 3.362762e-01 0.000000e+00 0.000000e+00
1
Step 579000
Ar 3.422024e-01 0.000000e+00 0.000000e+00
1
Step 580000
Ar 5.008613e-01 0.000000e+00 0.000000e+00
1
Step 581000
Ar 5.042116e-01 0.000000e+00 0.000000e+00
1
Step 582000
Ar 5.040864e-01 0.000000e+00 0.000000e+00
1
Step 583000
Ar 5.090880e-01 0.000000e+00 0.000000e+00
1
Step 584000
Ar 5.025983e-01 0.000000e+00 0.000000e+00
1
Step 585000
Ar 5.179108e-01 0.000000e+00 0.000000e+00
1
Step 586000
Ar 4.614107e-01 0.000000e+00 0.000000e+00
1
Step 587000
Ar 4.620909e-01 0.000000e+00 0.000000e+00
1
Step 588000
Ar 4.677530e-01 0.000000e+00 0.000000e+00
1
Step 589000
Ar 4.604106e-01 0.000000e+00 0.000000e+00
1
Step 590000
Ar 4.651312e-01 0.000000e+00 0.000000e+00
1
Step 591000
Ar 4.646178e-01 0.000000e+00 0.000000e+00
1
Step 592000
Ar 4.614205e-01 0.000000e+00 0.000000e+00
1
Step 593000
Ar 4.624824e-01 0.000000e+00 0.000000e+00
1
Step 594000
Ar 4.658682e-01 0.000000e+00 0.000000e+00
1
Step 595000
Ar 1.267563e-01 0.000000e+00 0.000000e+00
1
Step 596000
Ar 1.355402e-01 0.000000e+00 0.000000e+00
1
Step 597000
Ar 1.731326e-01 0.000000e+00 0.000000e+00
1
Step 598000
Ar 1.376457e-01 0.000000e+00 0.000000e+00
1
Step 599000
Ar 1.428148e-01 0.000000e+00 0.000000e+00
1
Step 600000
Ar 1.564063e-01 0.000000e+00 0.000000e+00
1
Step 601000
Ar 1.683124e-01 0.000000e+00 0.000000e+00
1
Step 602000
Ar 1.980791e-01 0.000000e+00 0.000000e+00
1
Step 603000
Ar 1.206696e-01 0.000000e+00 0.000000e+00
1
Step 604000
Ar 1.224181e-01 0.000000e+00 0.000000e+00
1
Step 605000
Ar 1.505173e-01 0.000000e+00 0.000000e+00
1
Step 606000
Ar 1.929247e-01 0.000000e+00 0.000000e+00
1
Step 607000
Ar 1.904605e-01 0.000000e+00 0.000000e+00
1
Step 608000
Ar 4.396164e-01 0.000000e+00 0.000000e+00
1
Step 609000
Ar 4.401150e-01 0.000000e+00 0.000000e+00
1
Step 610000
Ar 3.672764e-01 0.000000e+00 0.000000e+00
1
Step 611000
Ar 3.922111e-01 0.000000e+00 0.000000e+00
1
Step 612000
Ar 3.919748e-01 0.000000e+00 0.000000e+00
1
Step 613000
Ar 3.896332e-01 0.000000e+00 0.000000e+00
1
Step 614000
Ar 4.197186e-01 0.000000e+00 0.000000e+00
1
Step 615000
Ar 4.218379e-01 0.000000e+00 0.000000e+00
1
Step 616000
Ar 4.190194e-01 0.000000e+00 0.000000e+00
1
Step 617000
Ar 4.222025e-01 0.000000e+00 0.000000e+00
1
Step 618000
Ar 4.231454e-01 0.000000e+00 0.000000e+00
1
Step 619000
Ar 4.186928e-01 0.000000e+00 0.000000e+00
1
Step 620000
Ar 4.210333e-01 0.000000e+00 0.000000e+00
1
Step 621000
Ar 3.306193e-01 0.000000e+00 0.000000e+00
1
Step 622000
Ar 3.480745e-01 0.000000e+00 0.000000e+00
1
Step 623000
Ar 3.724757e-01 0.000000e+00 0.000000e+00
1
Step 624000
Ar 3.646720e-01 0.000000e+00 0.000000e+00
1
Step 625000
Ar 3.620966e-01 0.000000e+00 0.000000e+00
1
Step 626000
Ar 3.593365e-01 0.000000e+00 0.000000e+00
1
Step 627000
Ar 3.471053e-01 0.000000e+00 0.000000e+00
1
Step 628000
Ar 3.361303e-01 0.000000e+00 0.000000e+00
1
Step 629000
Ar 1.038251e+00 0.000000e+00 0.000000e+00
1
Step 630000
Ar 1.046217e+00 0.000000e+00 0.000000e+00
1
Step 631000
Ar 1.032862e+00 0.000000e+00 0.000000e+00
1
Step 632000
Ar 1.016466e+00 0.000000e+00 0.000000e+00
1
Step 633000
Ar 1.019536e+00 0.000000e+00 0.000000e+00
1
Step 634000
Ar 1.003316e+00 0.000000e+00 0.000000e+00
1
Step 635000
Ar 1.009033e+00 0.000000e+00 0.000000e+00
1
Step 636000
Ar 1.011677e+00 0.000000e+00 0.000000e+00
1
Step 637000
Ar 1.007020e+00 0.000000e+00 0.000000e+00
1
Step 638000
Ar 1.010014e+00 0.000000e+00 0.000000e+00
1
Step 639000
Ar 9.841592e-01 0.000000e+00 0.000000e+00
1
Step 640000
Ar 9.787850e-01 0.000000e+00 0.000000e+00
1
Step 641000
Ar 9.843589e-01 0.000000e+00 0.000000e+00
1
Step 642000
Ar 9.815654e-01 0.000000e+00 0.000000e+00
1
Step 643000
Ar 9.496785e-01 0.000000e+00 0.000000e+00
1
Step 644000
Ar 9.039855e-01 0.000000e+00 0.000000e+00
1
Step 645000
Ar 9.052628e-01 0.000000e+00 0.000000e+00
1
Step 646000
Ar 9.113296e-01 0.000000e+00 0.000000e+00
1
Step 647000
Ar 9.060089e-01 0.000000e+00 0.000000e+00
1
Step 648000
Ar 9.052661e-01 0.000000e+00 0.000000e+00
1
Step 649000
Ar 9.003537e-01 0.000000e+00 0.000000e+00
1