1
Step 120000
Ar 1.015257e+00 0.000000e+00 0.000000e+00
1
Step 121000
Ar 1.021376e+00 0.000000e+00 0.000000e+00
1
Step 122000
Ar 1.000119e+00 0.000000e+00 0.000000e+00
1
Step 123000
Ar 1.015462e+00 0.000000e+00 0.000000e+00
1
Step 124000
Ar 9.917861e-01 0.000000e+00 0.000000e+00
1
Step 125000
Ar 1.007585e+00 0.000000e+00 0.000000e+00
1
Step 126000
Ar 9.861546e-01 0.000000e+00 0.000000e+00
1
Step 127000
Ar 9.862569e-01 0.000000e+00 0.000000e+00
1
Step 128000
Ar 9.934687e-01 0.000000e+00 0.000000e+00
1
Step 129000
Ar 9.855700e-01 0.000000e+00 0.000000e+00
1
Step 130000
Ar 1.024922e+00 0.000000e+00 0.000000e+00
1
Step 131000
Ar 1.023438e+00 0.000000e+00 0.000000e+00
1
Step 132000
Ar 1.015832e+00 0.000000e+00 0.000000e+00
1
Step 133000
Ar 1.034595e+00 0.000000e+00 0.000000e+00
1
Step 134000
Ar 1.023600e+00 0.000000e+00 0.000000e+00
1
Step 135000
Ar 1.042521e+00 0.000000e+00 0.000000e+00
1
Step 136000
Ar 1.035669e+00 0.000000e+00 0.000000e+00
1
Step 137000
Ar 1.043072e+00 0.000000e+00 0.000000e+00
1
Step 138000
Ar 1.049064e+00 0.000000e+00 0.000000e+00
1
Step 139000
Ar 1.041046e+00 0.000000e+00 0.000000e+00
1
Step 140000
Ar 9.689407e-01 0.000000e+00 0.000000e+00
1
Step 141000
Ar 9.726858e-01 0.000000e+00 0.000000e+00
1
Step 142000
Ar 9.682599e-01 0.000000e+00 0.000000e+00
1
Step 143000
Ar 9.719369e-01 0.000000e+00 0.000000e+00
1
Step 144000
Ar 9.560018e-01 0.000000e+00 0.000000e+00
1
Step 145000
Ar 9.901257e-01 0.000000e+00 0.000000e+00
1
Step 146000
Ar 9.976756e-01 0.000000e+00 0.000000e+00
1
Step 147000
Ar 9.956641e-01 0.000000e+00 0.000000e+00
1
Step 148000
Ar 9.376800e-01 0.000000e+00 0.000000e+00
1
Step 149000
Ar 1.059369e+00 0.000000e+00 0.000000e+00
1
Step 150000
Ar 1.063431e+00 0.000000e+00 0.000000e+00
1
Step 151000
Ar 1.059929e+00 0.000000e+00 0.000000e+00
1
Step 152000
Ar 1.062428e+00 0.000000e+00 0.000000e+00
1
Step 153000
Ar 1.068072e+00 0.000000e+00 0.000000e+00
1
Step 154000
Ar 1.063446e+00 0.000000e+00 0.000000e+00
1
Step 155000
Ar 1.057838e+00 0.000000e+00 0.000000e+00
1
Step 156000
Ar 1.058234e+00 0.000000e+00 0.000000e+00
1
Step 157000
Ar 1.066485e+00 0.000000e+00 0.000000e+00
1
Step 158000
Ar 1.073124e+00 0.000000e+00 0.000000e+00
1
Step 159000
Ar 9.986720e-01 0.000000e+00 0.000000e+00
1
Step 160000
Ar 9.267565e-01 0.000000e+00 0.000000e+00
1
Step 161000
Ar 9.255490e-01 0.000000e+00 0.000000e+00
1
Step 162000
Ar 9.624243e-01 0.000000e+00 0.000000e+00
1
Step 163000
Ar 1.008330e+00 0.000000e+00 0.000000e+00
1
Step 164000
Ar 9.146994e-01 0.000000e+00 0.000000e+00
1
Step 165000
Ar 9.169123e-01 0.000000e+00 0.000000e+00
1
Step 166000
Ar 9.114787e-01 0.000000e+00 0.000000e+00
1
Step 167000
Ar 9.115856e-01 0.000000e+00 0.000000e+00
1
Step 168000
Ar 9.137234e-01 0.000000e+00 0.000000e+00
1
Step 169000
Ar 9.143492e-01 0.000000e+00 0.000000e+00
1
Step 170000
Ar 9.128658e-01 0.000000e+00 0.000000e+00
1
Step 171000
Ar 9.143814e-01 0.000000e+00 0.000000e+00
1
Step 172000
Ar 9.140494e-01 0.000000e+00 0.000000e+00
1
Step 173000
Ar 9.043619e-01 0.000000e+00 0.000000e+00
1
Step 174000
Ar 1.011913e+00 0.000000e+00 0.000000e+00
1
Step 175000
Ar 1.001254e+00 0.000000e+00 0.000000e+00
1
Step 176000
Ar 9.752435e-01 0.000000e+00 0.000000e+00
1
Step 177000
Ar 1.249443e+00 0.000000e+00 0.000000e+00
1
Step 178000
Ar 1.075312e+00 0.000000e+00 0.000000e+00
1
Step 179000
Ar 7.734190e-01 0.000000e+00 0.000000e+00
1
Step 180000
Ar 8.995730e-01 0.000000e+00 0.000000e+00
1
Step 181000
Ar 9.013318e-01 0.000000e+00 0.000000e+00
1
Step 182000
Ar 8.969154e-01 0.000000e+00 0.000000e+00
1
Step 183000
Ar 1.043656e+00 0.000000e+00 0.000000e+00
1
Step 184000
Ar 9.633625e-01 0.000000e+00 0.000000e+00
1
Step 185000
Ar 9.711855e-01 0.000000e+00 0.000000e+00
1
Step 186000
Ar 9.740069e-01 0.000000e+00 0.000000e+00
1
Step 187000
Ar 9.898109e-01 0.000000e+00 0.000000e+00
1
Step 188000
Ar 1.064190e+00 0.000000e+00 0.000000e+00
1
Step 189000
Ar 9.765713e-01 0.000000e+00 0.000000e+00
1
Step 190000
Ar 9.768967e-01 0.000000e+00 0.000000e+00
1
Step 191000
Ar 8.986929e-01 0.000000e+00 0.000000e+00
1
Step 192000
Ar 9.772778e-01 0.000000e+00 0.000000e+00
1
Step 193000
Ar 9.915444e-01 0.000000e+00 0.000000e+00
1
Step 194000
Ar 1.194314e+00 0.000000e+00 0.000000e+00
1
Step 195000
Ar 9.677925e-01 0.000000e+00 0.000000e+00
1
Step 196000
Ar 1.014882e+00 0.000000e+00 0.000000e+00
1
Step 197000
Ar 9.812980e-01 0.000000e+00 0.000000e+00
1
Step 198000
Ar 1.059500e+00 0.000000e+00 0.000000e+00
1
Step 199000
Ar 1.017080e+00 0.000000e+00 0.000000e+00
1
Step 200000
Ar 7.259434e-01 0.000000e+00 0.000000e+00
1
Step 201000
Ar 9.180523e-01 0.000000e+00 0.000000e+00
1
Step 202000
Ar 1.201324e+00 0.000000e+00 0.000000e+00
1
Step 203000
Ar 1.022562e+00 0.000000e+00 0.000000e+00
1
Step 204000
Ar 9.614838e-01 0.000000e+00 0.000000e+00
1
Step 205000
Ar 1.049017e+00 0.000000e+00 0.000000e+00
1
Step 206000
Ar 1.044233e+00 0.000000e+00 0.000000e+00
1
Step 207000
Ar 1.104049e+00 0.000000e+00 0.000000e+00
1
Step 208000
Ar 8.924265e-01 0.000000e+00 0.000000e+00
1
Step 209000
Ar 8.932253e-01 0.000000e+00 0.000000e+00
1
Step 210000
Ar 8.908404e-01 0.000000e+00 0.000000e+00
1
Step 211000
Ar 9.210780e-01 0.000000e+00 0.000000e+00
1
Step 212000
Ar 9.216216e-01 0.000000e+00 0.000000e+00
1
Step 213000
Ar 9.509433e-01 0.000000e+00 0.000000e+00
1
Step 214000
Ar 1.039500e+00 0.000000e+00 0.000000e+00
1
Step 215000
Ar 1.043327e+00 0.000000e+00 0.000000e+00
1
Step 216000
Ar 1.036747e+00 0.000000e+00 0.000000e+00
1
Step 217000
Ar 1.044413e+00 0.000000e+00 0.000000e+00
1
Step 218000
Ar 8.821712e-01 0.000000e+00 0.000000e+00
1
Step 219000
Ar 8.812778e-01 0.000000e+00 0.000000e+00
1
Step 220000
Ar 8.767866e-01 0.000000e+00 0.000000e+00
1
Step 221000
Ar 8.829270e-01 0.000000e+00 0.000000e+00
1
Step 222000
Ar 8.677938e-01 0.000000e+00 0.000000e+00
1
Step 223000
Ar 8.711703e-01 0.000000e+00 0.000000e+00
1
Step 224000
Ar 8.743202e-01 0.000000e+00 0.000000e+00
1
Step 225000
Ar 8.720822e-01 0.000000e+00 0.000000e+00
1
Step 226000
Ar 8.675838e-01 0.000000e+00 0.000000e+00
1
Step 227000
Ar 1.055675e+00 0.000000e+00 0.000000e+00
1
Step 228000
Ar 1.048681e+00 0.000000e+00 0.000000e+00
1
Step 229000
Ar 9.539665e-01 0.000000e+00 0.000000e+00
1
Step 230000
Ar 1.047273e+00 0.000000e+00 0.000000e+00
1
Step 231000
Ar 1.077789e+00 0.000000e+00 0.000000e+00
1
Step 232000
Ar 8.534453e-01 0.000000e+00 0.000000e+00
1
Step 233000
Ar 8.496932e-01 0.000000e+00 0.000000e+00
1
Step 234000
Ar 8.573771e-01 0.000000e+00 0.000000e+00
1
Step 235000
Ar 8.559176e-01 0.000000e+00 0.000000e+00
1
Step 236000
Ar 8.574661e-01 0.000000e+00 0.000000e+00
1
Step 237000
Ar 1.172391e+00 0.000000e+00 0.000000e+00
1
Step 238000
Ar 7.704281e-01 0.000000e+00 0.000000e+00
1
Step 239000
Ar 9.881991e-01 0.000000e+00 0.000000e+00
1
Step 240000
Ar 9.832679e-01 0.000000e+00 0.000000e+00
1
Step 241000
Ar 9.917882e-01 0.000000e+00 0.000000e+00
1
Step 242000
Ar 9.815071e-01 0.000000e+00 0.000000e+00
1
Step 243000
Ar 9.867816e-01 0.000000e+00 0.000000e+00
1
Step 244000
Ar 9.888271e-01 0.000000e+00 0.000000e+00
1
Step 245000
Ar 9.877433e-01 0.000000e+00 0.000000e+00
1
Step 246000
Ar 1.088394e+00 0.000000e+00 0.000000e+00
1
Step 247000
Ar 1.098229e+00 0.000000e+00 0.000000e+00
1
Step 248000
Ar 1.101371e+00 0.000000e+00 0.000000e+00
1
Step 249000
Ar 1.119974e+00 0.000000e+00 0.000000e+00
1
Step 250000
Ar 9.148742e-01 0.000000e+00 0.000000e+00
1
Step 251000
Ar 1.042491e+00 0.000000e+00 0.000000e+00
1
Step 252000
Ar 1.095341e+00 0.000000e+00 0.000000e+00
1
Step 253000
Ar 1.094817e+00 0.000000e+00 0.000000e+00
1
Step 254000
Ar 1.098824e+00 0.000000e+00 0.000000e+00
1
Step 255000
Ar 9.562988e-01 0.000000e+00 0.000000e+00
1
Step 256000
Ar 9.957450e-01 0.000000e+00 0.000000e+00
1
Step 257000
Ar 9.983774e-01 0.000000e+00 0.000000e+00
1
Step 258000
Ar 9.985567e-01 0.000000e+00 0.000000e+00
1
Step 259000
Ar 9.958189e-01 0.000000e+00 0.000000e+00
1
Step 260000
Ar 9.939534e-01 0.000000e+00 0.000000e+00
1
Step 261000
Ar 1.042550e+00 0.000000e+00 0.000000e+00
1
Step 262000
Ar 9.180631e-01 0.000000e+00 0.000000e+00
1
Step 263000
Ar 9.472669e-01 0.000000e+00 0.000000e+00
1
Step 264000
Ar 1.068822e+00 0.000000e+00 0.000000e+00
1
Step 265000
Ar 9.012882e-01 0.000000e+00 0.000000e+00
1
Step 266000
Ar 1.006748e+00 0.000000e+00 0.000000e+00
1
Step 267000
Ar 8.868441e-01 0.000000e+00 0.000000e+00
1
Step 268000
Ar 8.920618e-01 0.000000e+00 0.000000e+00
1
Step 269000
Ar 8.863312e-01 0.000000e+00 0.000000e+00
1
Step 270000
Ar 8.870257e-01 0.000000e+00 0.000000e+00
1
Step 271000
Ar 1.027399e+00 0.000000e+00 0.000000e+00
1
Step 272000
Ar 1.089597e+00 0.000000e+00 0.000000e+00
1
Step 273000
Ar 9.027382e-01 0.000000e+00 0.000000e+00
1
Step 274000
Ar 9.200357e-01 0.000000e+00 0.000000e+00
1
Step 275000
Ar 1.049631e+00 0.000000e+00 0.000000e+00
1
Step 276000
Ar 1.018855e+00 0.000000e+00 0.000000e+00
1
Step 277000
Ar 1.092153e+00 0.000000e+00 0.000000e+00
1
Step 278000
Ar 1.062669e+00 0.000000e+00 0.000000e+00
1
Step 279000
Ar 1.091136e+00 0.000000e+00 0.000000e+00
1
Step 280000
Ar 1.072463e+00 0.000000e+00 0.000000e+00
1
Step 281000
Ar 1.174061e+00 0.000000e+00 0.000000e+00
1
Step 282000
Ar 1.085950e+00 0.000000e+00 0.000000e+00
1
Step 283000
Ar 1.023745e+00 0.000000e+00 0.000000e+00
1
Step 284000
Ar 8.532132e-01 0.000000e+00 0.000000e+00
1
Step 285000
Ar 9.421088e-01 0.000000e+00 0.000000e+00
1
Step 286000
Ar 8.435683e-01 0.000000e+00 0.000000e+00
1
Step 287000
Ar 8.422670e-01 0.000000e+00 0.000000e+00
1
Step 288000
Ar 9.870815e-01 0.000000e+00 0.000000e+00
1
Step 289000
Ar 1.093218e+00 0.000000e+00 0.000000e+00
1
Step 290000
Ar 1.098868e+00 0.000000e+00 0.000000e+00
1
Step 291000
Ar 1.100723e+00 0.000000e+00 0.000000e+00
1
Step 292000
Ar 1.099217e+00 0.000000e+00 0.000000e+00
1
Step 293000
Ar 9.306966e-01 0.000000e+00 0.000000e+00
1
Step 294000
Ar 9.124820e-01 0.000000e+00 0.000000e+00
1
Step 295000
Ar 1.046238e+00 0.000000e+00 0.000000e+00
1
Step 296000
Ar 1.046407e+00 0.000000e+00 0.000000e+00
1
Step 297000
Ar 7.874671e-01 0.000000e+00 0.000000e+00
1
Step 298000
Ar 1.130528e+00 0.000000e+00 0.000000e+00
1
Step 299000
Ar 1.016800e+00 0.000000e+00 0.000000e+00
1
Step 300000
Ar 1.018644e+00 0.000000e+00 0.000000e+00
1
Step 301000
Ar 8.776531e-01 0.000000e+00 0.000000e+00
1
Step 302000
Ar 1.058821e+00 0.000000e+00 0.000000e+00
1
Step 303000
Ar 8.383547e-01 0.000000e+00 0.000000e+00
1
Step 304000
Ar 8.108809e-01 0.000000e+00 0.000000e+00
1
Step 305000
Ar 1.083874e+00 0.000000e+00 0.000000e+00
1
Step 306000
Ar 9.730424e-01 0.000000e+00 0.000000e+00
1
Step 307000
Ar 1.243749e+00 0.000000e+00 0.000000e+00
1
Step 308000
Ar 9.085497e-01 0.000000e+00 0.000000e+00
1
Step 309000
Ar 9.085579e-01 0.000000e+00 0.000000e+00
1
Step 310000
Ar 8.989207e-01 0.000000e+00 0.000000e+00
1
Step 311000
Ar 4.450166e-01 0.000000e+00 0.000000e+00
1
Step 312000
Ar 1.105450e+00 0.000000e+00 0.000000e+00
1
Step 313000
Ar 9.167672e-01 0.000000e+00 0.000000e+00
1
Step 314000
Ar 8.457480e-01 0.000000e+00 0.000000e+00
1
Step 315000
Ar 1.127379e+00 0.000000e+00 0.000000e+00
1
Step 316000
Ar 9.288269e-01 0.000000e+00 0.000000e+00
1
Step 317000
Ar 1.091186e+00 0.000000e+00 0.000000e+00
1
Step 318000
Ar 1.024217e+00 0.000000e+00 0.000000e+00
1
Step 319000
Ar 9.518904e-01 0.000000e+00 0.000000e+00
1
Step 320000
Ar 1.146923e+00 0.000000e+00 0.000000e+00
1
Step 321000
Ar 8.405731e-01 0.000000e+00 0.000000e+00
1
Step 322000
Ar 7.922726e-01 0.000000e+00 0.000000e+00
1
Step 323000
Ar 9.668770e-01 0.000000e+00 0.000000e+00
1
Step 324000
Ar 9.787413e-01 0.000000e+00 0.000000e+00
1
Step 325000
Ar 8.560291e-01 0.000000e+00 0.000000e+00
1
Step 326000
Ar 9.518850e-01 0.000000e+00 0.000000e+00
1
Step 327000
Ar 1.045064e+00 0.000000e+00 0.000000e+00
1
Step 328000
Ar 1.030066e+00 0.000000e+00 0.000000e+00
1
Step 329000
Ar 1.178900e+00 0.000000e+00 0.000000e+00
1
Step 330000
Ar 9.079502e-01 0.000000e+00 0.000000e+00
1
Step 331000
Ar 1.039195e+00 0.000000e+00 0.000000e+00
1
Step 332000
Ar 1.029799e+00 0.000000e+00 0.000000e+00
1
Step 333000
Ar 1.165052e+00 0.000000e+00 0.000000e+00
1
Step 334000
Ar 1.040545e+00 0.000000e+00 0.000000e+00
1
Step 335000
Ar 1.055083e+00 0.000000e+00 0.000000e+00
1
Step 336000
Ar 1.060847e+00 0.000000e+00 0.000000e+00
1
Step 337000
Ar 1.052862e+00 0.000000e+00 0.000000e+00
1
Step 338000
Ar 1.056800e+00 0.000000e+00 0.000000e+00
1
Step 339000
Ar 9.889819e-01 0.000000e+00 0.000000e+00
1
Step 340000
Ar 9.662060e-01 0.000000e+00 0.000000e+00
1
Step 341000
Ar 1.054735e+00 0.000000e+00 0.000000e+00
1
Step 342000
Ar 1.101405e+00 0.000000e+00 0.000000e+00
1
Step 343000
Ar 1.092238e+00 0.000000e+00 0.000000e+00
1
Step 344000
Ar 1.093871e+00 0.000000e+00 0.000000e+00
1
Step 345000
Ar 1.110043e+00 0.000000e+00 0.000000e+00
1
Step 346000
Ar 1.107587e+00 0.000000e+00 0.000000e+00
1
Step 347000
Ar 1.010361e+00 0.000000e+00 0.000000e+00
1
Step 348000
Ar 1.142571e+00 0.000000e+00 0.000000e+00
1
Step 349000
Ar 9.699691e-01 0.000000e+00 0.000000e+00
1
Step 350000
Ar 1.107726e+00 0.000000e+00 0.000000e+00
1
Step 351000
Ar 1.104114e+00 0.000000e+00 0.000000e+00
1
Step 352000
Ar 1.105500e+00 0.000000e+00 0.000000e+00
1
Step 353000
Ar 1.060000e+00 0.000000e+00 0.000000e+00
1
Step 354000
Ar 1.059505e+00 0.000000e+00 0.000000e+00
1
Step 355000
Ar 1.054562e+00 0.000000e+00 0.000000e+00
1
Step 356000
Ar 1.056926e+00 0.000000e+00 0.000000e+00
1
Step 357000
Ar 1.056687e+00 0.000000e+00 0.000000e+00
1
Step 358000
Ar 1.058510e+00 0.000000e+00 0.000000e+00
1
Step 359000
Ar 8.825770e-01 0.000000e+00 0.000000e+00
1
Step 360000
Ar 8.248221e-01 0.000000e+00 0.000000e+00
1
Step 361000
Ar 1.051190e+00 0.000000e+00 0.000000e+00
1
Step 362000
Ar 1.054106e+00 0.000000e+00 0.000000e+00
1
Step 363000
Ar 8.371844e-01 0.000000e+00 0.000000e+00
1
Step 364000
Ar 1.163764e+00 0.000000e+00 0.000000e+00
1
Step 365000
Ar 8.488317e-01 0.000000e+00 0.000000e+00
1
Step 366000
Ar 1.013502e+00 0.000000e+00 0.000000e+00
1
Step 367000
Ar 1.068409e+00 0.000000e+00 0.000000e+00
1
Step 368000
Ar 9.338707e-01 0.000000e+00 0.000000e+00
1
Step 369000
Ar 8.873370e-01 0.000000e+00 0.000000e+00
1
Step 370000
Ar 6.466999e-01 0.000000e+00 0.000000e+00
1
Step 371000
Ar 1.053145e+00 0.000000e+00 0.000000e+00
1
Step 372000
Ar 9.656201e-01 0.000000e+00 0.000000e+00
1
Step 373000
Ar 9.529209e-01 0.000000e+00 0.000000e+00
1
Step 374000
Ar 1.075899e+00 0.000000e+00 0.000000e+00
1
Step 375000
Ar 5.723925e-01 0.000000e+00 0.000000e+00
1
Step 376000
Ar 9.200606e-01 0.000000e+00 0.000000e+00
1
Step 377000
Ar 1.184300e+00 0.000000e+00 0.000000e+00
1
Step 378000
Ar 9.849095e-01 0.000000e+00 0.000000e+00
1
Step 379000
Ar 9.337352e-01 0.000000e+00 0.000000e+00
1
Step 380000
Ar 7.270613e-01 0.000000e+00 0.000000e+00
1
Step 381000
Ar 8.095459e-01 0.000000e+00 0.000000e+00
1
Step 382000
Ar 8.231625e-01 0.000000e+00 0.000000e+00
1
Step 383000
Ar 8.221880e-01 0.000000e+00 0.000000e+00
1
Step 384000
Ar 8.232688e-01 0.000000e+00 0.000000e+00
1
Step 385000
Ar 8.221161e-01 0.000000e+00 0.000000e+00
1
Step 386000
Ar 9.992640e-01 0.000000e+00 0.000000e+00
1
Step 387000
Ar 1.175142e+00 0.000000e+00 0.000000e+00
1
Step 388000
Ar 7.421514e-01 0.000000e+00 0.000000e+00
1
Step 389000
Ar 1.144319e+00 0.000000e+00 0.000000e+00
1
Step 390000
Ar 9.894926e-01 0.000000e+00 0.000000e+00
1
Step 391000
Ar 1.085537e+00 0.000000e+00 0.000000e+00
1
Step 392000
Ar 5.991032e-01 0.000000e+00 0.000000e+00
1
Step 393000
Ar 1.061095e+00 0.000000e+00 0.000000e+00
1
Step 394000
Ar 8.241435e-01 0.000000e+00 0.000000e+00
1
Step 395000
Ar 9.778724e-01 0.000000e+00 0.000000e+00
1
Step 396000
Ar 1.167869e+00 0.000000e+00 0.000000e+00
1
Step 397000
Ar 6.049612e-01 0.000000e+00 0.000000e+00
1
Step 398000
Ar 8.796519e-01 0.000000e+00 0.000000e+00
1
Step 399000
Ar 8.227624e-01 0.000000e+00 0.000000e+00
1
Step 400000
Ar 1.071090e+00 0.000000e+00 0.000000e+00
1
Step 401000
Ar 1.186936e+00 0.000000e+00 0.000000e+00
1
Step 402000
Ar 6.793689e-01 0.000000e+00 0.000000e+00
1
Step 403000
Ar 1.184402e+00 0.000000e+00 0.000000e+00
1
Step 404000
Ar 6.270615e-01 0.000000e+00 0.000000e+00
1
Step 405000
Ar 8.134501e-01 0.000000e+00 0.000000e+00
1
Step 406000
Ar 9.696988e-01 0.000000e+00 0.000000e+00
1
Step 407000
Ar 6.995449e-01 0.000000e+00 0.000000e+00
1
Step 408000
Ar 8.998095e-01 0.000000e+00 0.000000e+00
1
Step 409000
Ar 9.137106e-01 0.000000e+00 0.000000e+00
1
Step 410000
Ar 8.043318e-01 0.000000e+00 0.000000e+00
1
Step 411000
Ar 1.201076e+00 0.000000e+00 0.000000e+00
1
Step 412000
Ar 1.075564e+00 0.000000e+00 0.000000e+00
1
Step 413000
Ar 1.240547e+00 0.000000e+00 0.000000e+00
1
Step 414000
Ar 1.022221e+00 0.000000e+00 0.000000e+00
1
Step 415000
Ar 1.056643e+00 0.000000e+00 0.000000e+00
1
Step 416000
Ar -9.970951e-01 0.000000e+00 0.000000e+00
1
Step 417000
Ar -1.036886e+00 0.000000e+00 0.000000e+00
1
Step 418000
Ar -1.030571e+00 0.000000e+00 0.000000e+00
1
Step 419000
Ar -1.035724e+00 0.000000e+00 0.000000e+00
1
Step 420000
Ar -1.039808e+00 0.000000e+00 0.000000e+00
1
Step 421000
Ar -1.036627e+00 0.000000e+00 0.000000e+00
1
Step 422000
Ar -1.039245e+00 0.000000e+00 0.000000e+00
1
Step 423000
Ar -1.033061e+00 0.000000e+00 0.000000e+00
1
Step 424000
Ar -1.035619e+00 0.000000e+00 0.000000e+00
1
Step 425000
Ar -1.039071e+00 0.000000e+00 0.000000e+00
1
Step 426000
Ar -9.528695e-01 0.000000e+00 0.000000e+00
1
Step 427000
Ar -1.004312e+00 0.000000e+00 0.000000e+00
1
Step 428000
Ar -9.942706e-01 0.000000e+00 0.000000e+00
1
Step 429000
Ar -9.691898e-01 0.000000e+00 0.000000e+00
1
Step 430000
Ar -9.683284e-01 0.000000e+00 0.000000e+00
1
Step 431000
Ar -1.014844e+00 0.000000e+00 0.000000e+00
1
Step 432000
Ar -9.972923e-01 0.000000e+00 0.000000e+00
1
Step 433000
Ar -1.004026e+00 0.000000e+00 0.000000e+00
1
Step 434000
Ar -1.003422e+00 0.000000e+00 0.000000e+00
1
Step 435000
Ar -1.005905e+00 0.000000e+00 0.000000e+00
1
Step 436000
Ar -1.007261e+00 0.000000e+00 0.000000e+00
1
Step 437000
Ar -9.965532e-01 0.000000e+00 0.000000e+00
1
Step 438000
Ar -1.010563e+00 0.000000e+00 0.000000e+00
1
Step 439000
Ar -1.009910e+00 0.000000e+00 0.000000e+00
1
Step 440000
Ar -1.011059e+00 0.000000e+00 0.000000e+00
1
Step 441000
Ar -1.010014e+00 0.000000e+00 0.000000e+00
1
Step 442000
Ar -1.047855e+00 0.000000e+00 0.000000e+00
1
Step 443000
Ar -1.045321e+00 0.000000e+00 0.000000e+00
1
Step 444000
Ar -9.388496e-01 0.000000e+00 0.000000e+00
1
Step 445000
Ar -9.555271e-01 0.000000e+00 0.000000e+00
1
Step 446000
Ar -9.450286e-01 0.000000e+00 0.000000e+00
1
Step 447000
Ar -9.380288e-01 0.000000e+00 0.000000e+00
1
Step 448000
Ar -9.373390e-01 0.000000e+00 0.000000e+00
1
Step 449000
Ar -9.355362e-01 0.000000e+00 0.000000e+00
1
Step 450000
Ar -9.370497e-01 0.000000e+00 0.000000e+00
1
Step 451000
Ar -1.069007e+00 0.000000e+00 0.000000e+00
1
Step 452000
Ar -1.060752e+00 0.000000e+00 0.000000e+00
1
Step 453000
Ar -1.059779e+00 0.000000e+00 0.000000e+00
1
Step 454000
Ar -1.061129e+00 0.000000e+00 0.000000e+00
1
Step 455000
Ar -9.530613e-01 0.000000e+00 0.000000e+00
1
Step 456000
Ar -1.068261e+00 0.000000e+00 0.000000e+00
1
Step 457000
Ar -1.065013e+00 0.000000e+00 0.000000e+00
1
Step 458000
Ar -1.069621e+00 0.000000e+00 0.000000e+00
1
Step 459000
Ar -1.072234e+00 0.000000e+00 0.000000e+00
1
Step 460000
Ar -1.066621e+00 0.000000e+00 0.000000e+00
1
Step 461000
Ar -1.068523e+00 0.000000e+00 0.000000e+00
1
Step 462000
Ar -1.066396e+00 0.000000e+00 0.000000e+00
1
Step 463000
Ar -1.068541e+00 0.000000e+00 0.000000e+00
1
Step 464000
Ar -1.065445e+00 0.000000e+00 0.000000e+00
1
Step 465000
Ar -1.065852e+00 0.000000e+00 0.000000e+00
1
Step 466000
Ar -1.068374e+00 0.000000e+00 0.000000e+00
1
Step 467000
Ar -1.084305e+00 0.000000e+00 0.000000e+00
1
Step 468000
Ar -1.088298e+00 0.000000e+00 0.000000e+00
1
Step 469000
Ar -1.083463e+00 0.000000e+00 0.000000e+00
1
Step 470000
Ar -1.079452e+00 0.000000e+00 0.000000e+00
1
Step 471000
Ar -9.615106e-01 0.000000e+00 0.000000e+00
1
Step 472000
Ar -1.063737e+00 0.000000e+00 0.000000e+00
1
Step 473000
Ar -1.060335e+00 0.000000e+00 0.000000e+00
1
Step 474000
Ar -1.011489e+00 0.000000e+00 0.000000e+00
1
Step 475000
Ar -1.165828e+00 0.000000e+00 0.000000e+00
1
Step 476000
Ar -1.075720e+00 0.000000e+00 0.000000e+00
1
Step 477000
Ar -8.765099e-01 0.000000e+00 0.000000e+00
1
Step 478000
Ar -9.310046e-01 0.000000e+00 0.000000e+00
1
Step 479000
Ar -9.216471e-01 0.000000e+00 0.000000e+00
1
Step 480000
Ar -9.247835e-01 0.000000e+00 0.000000e+00
1
Step 481000
Ar -9.210973e-01 0.000000e+00 0.000000e+00
1
Step 482000
Ar -9.192455e-01 0.000000e+00 0.000000e+00
1
Step 483000
Ar -9.220906e-01 0.000000e+00 0.000000e+00
1
Step 484000
Ar -9.241367e-01 0.000000e+00 0.000000e+00
1
Step 485000
Ar -8.880891e-01 0.000000e+00 0.000000e+00
1
Step 486000
Ar -8.953439e-01 0.000000e+00 0.000000e+00
1
Step 487000
Ar -8.972365e-01 0.000000e+00 0.000000e+00
1
Step 488000
Ar -8.997969e-01 0.000000e+00 0.000000e+00
1
Step 489000
Ar -8.952883e-01 0.000000e+00 0.000000e+00
1
Step 490000
Ar -1.086679e+00 0.000000e+00 0.000000e+00
1
Step 491000
Ar -1.087657e+00 0.000000e+00 0.000000e+00
1
Step 492000
Ar -1.082330e+00 0.000000e+00 0.000000e+00
1
Step 493000
Ar -1.029649e+00 0.000000e+00 0.000000e+00
1
Step 494000
Ar -1.019462e+00 0.000000e+00 0.000000e+00
1
Step 495000
Ar -1.016222e+00 0.000000e+00 0.000000e+00
1
Step 496000
Ar -1.030392e+00 0.000000e+00 0.000000e+00
1
Step 497000
Ar -9.224245e-01 0.000000e+00 0.000000e+00
1
Step 498000
Ar -9.243194e-01 0.000000e+00 0.000000e+00
1
Step 499000
Ar -9.227217e-01 0.000000e+00 0.000000e+00
1
Step 500000
Ar -9.190114e-01 0.000000e+00 0.000000e+00
1
Step 501000
Ar -9.183115e-01 0.000000e+00 0.000000e+00
1
Step 502000
Ar -9.251600e-01 0.000000e+00 0.000000e+00
1
Step 503000
Ar -9.231329e-01 0.000000e+00 0.000000e+00
1
Step 504000
Ar -9.228809e-01 0.000000e+00 0.000000e+00
1
Step 505000
Ar -9.230507e-01 0.000000e+00 0.000000e+00
1
Step 506000
Ar -9.214974e-01 0.000000e+00 0.000000e+00
1
Step 507000
Ar -1.020749e+00 0.000000e+00 0.000000e+00
1
Step 508000
Ar -1.020137e+00 0.000000e+00 0.000000e+00
1
Step 509000
Ar -1.004867e+00 0.000000e+00 0.000000e+00
1
Step 510000
Ar -1.085141e+00 0.000000e+00 0.000000e+00
1
Step 511000
Ar -1.042554e+00 0.000000e+00 0.000000e+00
1
Step 512000
Ar -9.029163e-01 0.000000e+00 0.000000e+00
1
Step 513000
Ar -8.998863e-01 0.000000e+00 0.000000e+00
1
Step 514000
Ar -8.941421e-01 0.000000e+00 0.000000e+00
1
Step 515000
Ar -8.978672e-01 0.000000e+00 0.000000e+00
1
Step 516000
Ar -8.977481e-01 0.000000e+00 0.000000e+00
1
Step 517000
Ar -9.856574e-01 0.000000e+00 0.000000e+00
1
Step 518000
Ar -9.801948e-01 0.000000e+00 0.000000e+00
1
Step 519000
Ar -9.812140e-01 0.000000e+00 0.000000e+00
1
Step 520000
Ar -9.806118e-01 0.000000e+00 0.000000e+00
1
Step 521000
Ar -9.577330e-01 0.000000e+00 0.000000e+00
1
Step 522000
Ar -9.525726e-01 0.000000e+00 0.000000e+00
1
Step 523000
Ar -9.487927e-01 0.000000e+00 0.000000e+00
1
Step 524000
Ar -1.007831e+00 0.000000e+00 0.000000e+00
1
Step 525000
Ar -1.040315e+00 0.000000e+00 0.000000e+00
1
Step 526000
Ar -9.036824e-01 0.000000e+00 0.000000e+00
1
Step 527000
Ar -9.811684e-01 0.000000e+00 0.000000e+00
1
Step 528000
Ar -9.838120e-01 0.000000e+00 0.000000e+00
1
Step 529000
Ar -9.873523e-01 0.000000e+00 0.000000e+00
1
Step 530000
Ar -9.832237e-01 0.000000e+00 0.000000e+00
1
Step 531000
Ar -1.098614e+00 0.000000e+00 0.000000e+00
1
Step 532000
Ar -9.876910e-01 0.000000e+00 0.000000e+00
1
Step 533000
Ar -9.877560e-01 0.000000e+00 0.000000e+00
1
Step 534000
Ar -9.815224e-01 0.000000e+00 0.000000e+00
1
Step 535000
Ar -9.850567e-01 0.000000e+00 0.000000e+00
1
Step 536000
Ar -9.787767e-01 0.000000e+00 0.000000e+00
1
Step 537000
Ar -9.826908e-01 0.000000e+00 0.000000e+00
1
Step 538000
Ar -1.120616e+00 0.000000e+00 0.000000e+00
1
Step 539000
Ar -9.320455e-01 0.000000e+00 0.000000e+00
1
Step 540000
Ar -9.351283e-01 0.000000e+00 0.000000e+00
1
Step 541000
Ar -9.320142e-01 0.000000e+00 0.000000e+00
1
Step 542000
Ar -9.301751e-01 0.000000e+00 0.000000e+00
1
Step 543000
Ar -1.043198e+00 0.000000e+00 0.000000e+00
1
Step 544000
Ar -8.836760e-01 0.000000e+00 0.000000e+00
1
Step 545000
Ar -1.043050e+00 0.000000e+00 0.000000e+00
1
Step 546000
Ar -1.037958e+00 0.000000e+00 0.000000e+00
1
Step 547000
Ar -1.070828e+00 0.000000e+00 0.000000e+00
1
Step 548000
Ar -9.627979e-01 0.000000e+00 0.000000e+00
1
Step 549000
Ar -1.075852e+00 0.000000e+00 0.000000e+00
1
Step 550000
Ar -1.086334e+00 0.000000e+00 0.000000e+00
1
Step 551000
Ar -1.082242e+00 0.000000e+00 0.000000e+00
1
Step 552000
Ar -1.083528e+00 0.000000e+00 0.000000e+00
1
Step 553000
Ar -1.084789e+00 0.000000e+00 0.000000e+00
1
Step 554000
Ar -1.079365e+00 0.000000e+00 0.000000e+00
1
Step 555000
Ar -1.081520e+00 0.000000e+00 0.000000e+00
1
Step 556000
Ar -1.084711e+00 0.000000e+00 0.000000e+00
1
Step 557000
Ar -1.083335e+00 0.000000e+00 0.000000e+00
1
Step 558000
Ar -1.083119e+00 0.000000e+00 0.000000e+00
1
Step 559000
Ar -1.078060e+00 0.000000e+00 0.000000e+00
1
Step 560000
Ar -1.085940e+00 0.000000e+00 0.000000e+00
1
Step 561000
Ar -1.083432e+00 0.000000e+00 0.000000e+00
1
Step 562000
Ar -1.082888e+00 0.000000e+00 0.000000e+00
1
Step 563000
Ar -1.087051e+00 0.000000e+00 0.000000e+00
1
Step 564000
Ar -8.830812e-01 0.000000e+00 0.000000e+00
1
Step 565000
Ar -8.850133e-01 0.000000e+00 0.000000e+00
1
Step 566000
Ar -1.078562e+00 0.000000e+00 0.000000e+00
1
Step 567000
Ar -1.028762e+00 0.000000e+00 0.000000e+00
1
Step 568000
Ar -1.008164e+00 0.000000e+00 0.000000e+00
1
Step 569000
Ar -1.089905e+00 0.000000e+00 0.000000e+00
1
Step 570000
Ar -1.012463e+00 0.000000e+00 0.000000e+00
1
Step 571000
Ar -8.801932e-01 0.000000e+00 0.000000e+00
1
Step 572000
Ar -1.042638e+00 0.000000e+00 0.000000e+00
1
Step 573000
Ar -9.778920e-01 0.000000e+00 0.000000e+00
1
Step 574000
Ar -1.055828e+00 0.000000e+00 0.000000e+00
1
Step 575000
Ar -9.142530e-01 0.000000e+00 0.000000e+00
1
Step 576000
Ar -9.195739e-01 0.000000e+00 0.000000e+00
1
Step 577000
Ar -1.007369e+00 0.000000e+00 0.000000e+00
1
Step 578000
Ar -8.703387e-01 0.000000e+00 0.000000e+00
1
Step 579000
Ar -8.700553e-01 0.000000e+00 0.000000e+00
1
Step 580000
Ar -9.692184e-01 0.000000e+00 0.000000e+00
1
Step 581000
Ar -1.066809e+00 0.000000e+00 0.000000e+00
1
Step 582000
Ar -1.044260e+00 0.000000e+00 0.000000e+00
1
Step 583000
Ar -1.069588e+00 0.000000e+00 0.000000e+00
1
Step 584000
Ar -9.566465e-01 0.000000e+00 0.000000e+00
1
Step 585000
Ar -9.196253e-01 0.000000e+00 0.000000e+00
1
Step 586000
Ar -8.302547e-01 0.000000e+00 0.000000e+00
1
Step 587000
Ar -1.041918e+00 0.000000e+00 0.000000e+00
1
Step 588000
Ar -1.091694e+00 0.000000e+00 0.000000e+00
1
Step 589000
Ar -1.008252e+00 0.000000e+00 0.000000e+00
1
Step 590000
Ar -1.041554e+00 0.000000e+00 0.000000e+00
1
Step 591000
Ar -1.026827e+00 0.000000e+00 0.000000e+00
1
Step 592000
Ar -1.029208e+00 0.000000e+00 0.000000e+00
1
Step 593000
Ar -1.018133e+00 0.000000e+00 0.000000e+00
1
Step 594000
Ar -9.413399e-01 0.000000e+00 0.000000e+00
1
Step 595000
Ar -9.441749e-01 0.000000e+00 0.000000e+00
1
Step 596000
Ar -1.030839e+00 0.000000e+00 0.000000e+00
1
Step 597000
Ar -1.031504e+00 0.000000e+00 0.000000e+00
1
Step 598000
Ar -1.025594e+00 0.000000e+00 0.000000e+00
1
Step 599000
Ar -1.028470e+00 0.000000e+00 0.000000e+00
1
Step 600000
Ar -1.180362e+00 0.000000e+00 0.000000e+00
1
Step 601000
Ar -1.070937e+00 0.000000e+00 0.000000e+00
1
Step 602000
Ar -1.079090e+00 0.000000e+00 0.000000e+00
1
Step 603000
Ar -1.030815e+00 0.000000e+00 0.000000e+00
1
Step 604000
Ar -1.040205e+00 0.000000e+00 0.000000e+00
1
Step 605000
Ar -1.029893e+00 0.000000e+00 0.000000e+00
1
Step 606000
Ar -1.041917e+00 0.000000e+00 0.000000e+00
1
Step 607000
Ar -1.037612e+00 0.000000e+00 0.000000e+00
1
Step 608000
Ar -1.010564e+00 0.000000e+00 0.000000e+00
1
Step 609000
Ar -1.009495e+00 0.000000e+00 0.000000e+00
1
Step 610000
Ar -9.381081e-01 0.000000e+00 0.000000e+00
1
Step 611000
Ar -1.044392e+00 0.000000e+00 0.000000e+00
1
Step 612000
Ar -1.099524e+00 0.000000e+00 0.000000e+00
1
Step 613000
Ar -9.203213e-01 0.000000e+00 0.000000e+00
1
Step 614000
Ar -8.947101e-01 0.000000e+00 0.000000e+00
1
Step 615000
Ar -1.115457e+00 0.000000e+00 0.000000e+00
1
Step 616000
Ar -1.129080e+00 0.000000e+00 0.000000e+00
1
Step 617000
Ar -1.120971e+00 0.000000e+00 0.000000e+00
1
Step 618000
Ar -1.031911e+00 0.000000e+00 0.000000e+00
1
Step 619000
Ar -9.330290e-01 0.000000e+00 0.000000e+00
1
Step 620000
Ar -9.403702e-01 0.000000e+00 0.000000e+00
1
Step 621000
Ar -1.076841e+00 0.000000e+00 0.000000e+00
1
Step 622000
Ar -9.667016e-01 0.000000e+00 0.000000e+00
1
Step 623000
Ar -1.079497e+00 0.000000e+00 0.000000e+00
1
Step 624000
Ar -1.100631e+00 0.000000e+00 0.000000e+00
1
Step 625000
Ar -9.064181e-01 0.000000e+00 0.000000e+00
1
Step 626000
Ar -1.133702e+00 0.000000e+00 0.000000e+00
1
Step 627000
Ar -9.295839e-01 0.000000e+00 0.000000e+00
1
Step 628000
Ar -1.080784e+00 0.000000e+00 0.000000e+00
1
Step 629000
Ar -8.611205e-01 0.000000e+00 0.000000e+00
1
Step 630000
Ar -8.649525e-01 0.000000e+00 0.000000e+00
1
Step 631000
Ar -8.632634e-01 0.000000e+00 0.000000e+00
1
Step 632000
Ar -1.021855e+00 0.000000e+00 0.000000e+00
1
Step 633000
Ar -1.007627e+00 0.000000e+00 0.000000e+00
1
Step 634000
Ar -8.966470e-01 0.000000e+00 0.000000e+00
1
Step 635000
Ar -8.989379e-01 0.000000e+00 0.000000e+00
1
Step 636000
Ar -1.077669e+00 0.000000e+00 0.000000e+00
1
Step 637000
Ar -1.078876e+00 0.000000e+00 0.000000e+00
1
Step 638000
Ar -1.090523e+00 0.000000e+00 0.000000e+00
1
Step 639000
Ar -1.122010e+00 0.000000e+00 0.000000e+00
1
Step 640000
Ar -1.097064e+00 0.000000e+00 0.000000e+00
1
Step 641000
Ar -9.928831e-01 0.000000e+00 0.000000e+00
1
Step 642000
Ar -9.710032e-01 0.000000e+00 0.000000e+00
1
Step 643000
Ar -1.017026e+00 0.000000e+00 0.000000e+00
1
Step 644000
Ar -1.015340e+00 0.000000e+00 0.000000e+00
1
Step 645000
Ar -9.100687e-01 0.000000e+00 0.000000e+00
1
Step 646000
Ar -9.239304e-01 0.000000e+00 0.000000e+00
1
Step 647000
Ar -1.097095e+00 0.000000e+00 0.000000e+00
1
Step 648000
Ar -8.293174e-01 0.000000e+00 0.000000e+00
1
Step 649000
Ar -1.006603e+00 0.000000e+00 0.000000e+00
1
Step 650000
Ar -9.722677e-01 0.000000e+00 0.000000e+00
1
Step 651000