1
Step 120000
Ar 9.983263e-01 0.000000e+00 0.000000e+00
1
Step 121000
Ar 9.986196e-01 0.000000e+00 0.000000e+00
1
Step 122000
Ar 1.009964e+00 0.000000e+00 0.000000e+00
1
Step 123000
Ar 1.007427e+00 0.000000e+00 0.000000e+00
1
Step 124000
Ar 1.018338e+00 0.000000e+00 0.000000e+00
1
Step 125000
Ar 1.006676e+00 0.000000e+00 0.000000e+00
1
Step 126000
Ar 1.019107e+00 0.000000e+00 0.000000e+00
1
Step 127000
Ar 1.019920e+00 0.000000e+00 0.000000e+00
1
Step 128000
Ar 1.027626e+00 0.000000e+00 0.000000e+00
1
Step 129000
Ar 1.024781e+00 0.000000e+00 0.000000e+00
1
Step 130000
Ar 1.022066e+00 0.000000e+00 0.000000e+00
1
Step 131000
Ar 9.845243e-01 0.000000e+00 0.000000e+00
1
Step 132000
Ar 9.916071e-01 0.000000e+00 0.000000e+00
1
Step 133000
Ar 9.966157e-01 0.000000e+00 0.000000e+00
1
Step 134000
Ar 9.684390e-01 0.000000e+00 0.000000e+00
1
Step 135000
Ar 9.885597e-01 0.000000e+00 0.000000e+00
1
Step 136000
Ar 1.039309e+00 0.000000e+00 0.000000e+00
1
Step 137000
Ar 1.036571e+00 0.000000e+00 0.000000e+00
1
Step 138000
Ar 1.030146e+00 0.000000e+00 0.000000e+00
1
Step 139000
Ar 1.046118e+00 0.000000e+00 0.000000e+00
1
Step 140000
Ar 1.033981e+00 0.000000e+00 0.000000e+00
1
Step 141000
Ar 9.767647e-01 0.000000e+00 0.000000e+00
1
Step 142000
Ar 9.716465e-01 0.000000e+00 0.000000e+00
1
Step 143000
Ar 9.659605e-01 0.000000e+00 0.000000e+00
1
Step 144000
Ar 9.712135e-01 0.000000e+00 0.000000e+00
1
Step 145000
Ar 9.761242e-01 0.000000e+00 0.000000e+00
1
Step 146000
Ar 1.044341e+00 0.000000e+00 0.000000e+00
1
Step 147000
Ar 1.045511e+00 0.000000e+00 0.000000e+00
1
Step 148000
Ar 1.043693e+00 0.000000e+00 0.000000e+00
1
Step 149000
Ar 1.048334e+00 0.000000e+00 0.000000e+00
1
Step 150000
Ar 1.047149e+00 0.000000e+00 0.000000e+00
1
Step 151000
Ar 9.613890e-01 0.000000e+00 0.000000e+00
1
Step 152000
Ar 9.549714e-01 0.000000e+00 0.000000e+00
1
Step 153000
Ar 9.641572e-01 0.000000e+00 0.000000e+00
1
Step 154000
Ar 9.646838e-01 0.000000e+00 0.000000e+00
1
Step 155000
Ar 9.628456e-01 0.000000e+00 0.000000e+00
1
Step 156000
Ar 9.501193e-01 0.000000e+00 0.000000e+00
1
Step 157000
Ar 9.507727e-01 0.000000e+00 0.000000e+00
1
Step 158000
Ar 9.506429e-01 0.000000e+00 0.000000e+00
1
Step 159000
Ar 9.509289e-01 0.000000e+00 0.000000e+00
1
Step 160000
Ar 9.474786e-01 0.000000e+00 0.000000e+00
1
Step 161000
Ar 1.058341e+00 0.000000e+00 0.000000e+00
1
Step 162000
Ar 1.061277e+00 0.000000e+00 0.000000e+00
1
Step 163000
Ar 1.060210e+00 0.000000e+00 0.000000e+00
1
Step 164000
Ar 1.059819e+00 0.000000e+00 0.000000e+00
1
Step 165000
Ar 1.067574e+00 0.000000e+00 0.000000e+00
1
Step 166000
Ar 9.552823e-01 0.000000e+00 0.000000e+00
1
Step 167000
Ar 9.371163e-01 0.000000e+00 0.000000e+00
1
Step 168000
Ar 9.329989e-01 0.000000e+00 0.000000e+00
1
Step 169000
Ar 9.318825e-01 0.000000e+00 0.000000e+00
1
Step 170000
Ar 9.338930e-01 0.000000e+00 0.000000e+00
1
Step 171000
Ar 9.665365e-01 0.000000e+00 0.000000e+00
1
Step 172000
Ar 1.038879e+00 0.000000e+00 0.000000e+00
1
Step 173000
Ar 9.550301e-01 0.000000e+00 0.000000e+00
1
Step 174000
Ar 1.076582e+00 0.000000e+00 0.000000e+00
1
Step 175000
Ar 1.079472e+00 0.000000e+00 0.000000e+00
1
Step 176000
Ar 9.998559e-01 0.000000e+00 0.000000e+00
1
Step 177000
Ar 1.026710e+00 0.000000e+00 0.000000e+00
1
Step 178000
Ar 1.025412e+00 0.000000e+00 0.000000e+00
1
Step 179000
Ar 9.236506e-01 0.000000e+00 0.000000e+00
1
Step 180000
Ar 9.218591e-01 0.000000e+00 0.000000e+00
1
Step 181000
Ar 9.708052e-01 0.000000e+00 0.000000e+00
1
Step 182000
Ar 9.845109e-01 0.000000e+00 0.000000e+00
1
Step 183000
Ar 1.017445e+00 0.000000e+00 0.000000e+00
1
Step 184000
Ar 8.393903e-01 0.000000e+00 0.000000e+00
1
Step 185000
Ar 1.087019e+00 0.000000e+00 0.000000e+00
1
Step 186000
Ar 1.096601e+00 0.000000e+00 0.000000e+00
1
Step 187000
Ar 1.096397e+00 0.000000e+00 0.000000e+00
1
Step 188000
Ar 1.098675e+00 0.000000e+00 0.000000e+00
1
Step 189000
Ar 1.100137e+00 0.000000e+00 0.000000e+00
1
Step 190000
Ar 1.091552e+00 0.000000e+00 0.000000e+00
1
Step 191000
Ar 1.114968e+00 0.000000e+00 0.000000e+00
1
Step 192000
Ar 9.589159e-01 0.000000e+00 0.000000e+00
1
Step 193000
Ar 9.415479e-01 0.000000e+00 0.000000e+00
1
Step 194000
Ar 9.521675e-01 0.000000e+00 0.000000e+00
1
Step 195000
Ar 9.086858e-01 0.000000e+00 0.000000e+00
1
Step 196000
Ar 9.765517e-01 0.000000e+00 0.000000e+00
1
Step 197000
Ar 8.670631e-01 0.000000e+00 0.000000e+00
1
Step 198000
Ar 9.949768e-01 0.000000e+00 0.000000e+00
1
Step 199000
Ar 1.054713e+00 0.000000e+00 0.000000e+00
1
Step 200000
Ar 1.024743e+00 0.000000e+00 0.000000e+00
1
Step 201000
Ar 8.954063e-01 0.000000e+00 0.000000e+00
1
Step 202000
Ar 8.997707e-01 0.000000e+00 0.000000e+00
1
Step 203000
Ar 8.995861e-01 0.000000e+00 0.000000e+00
1
Step 204000
Ar 8.997345e-01 0.000000e+00 0.000000e+00
1
Step 205000
Ar 8.962152e-01 0.000000e+00 0.000000e+00
1
Step 206000
Ar 1.101892e+00 0.000000e+00 0.000000e+00
1
Step 207000
Ar 1.102857e+00 0.000000e+00 0.000000e+00
1
Step 208000
Ar 1.096261e+00 0.000000e+00 0.000000e+00
1
Step 209000
Ar 1.054639e+00 0.000000e+00 0.000000e+00
1
Step 210000
Ar 1.055339e+00 0.000000e+00 0.000000e+00
1
Step 211000
Ar 9.234092e-01 0.000000e+00 0.000000e+00
1
Step 212000
Ar 1.016525e+00 0.000000e+00 0.000000e+00
1
Step 213000
Ar 1.169225e+00 0.000000e+00 0.000000e+00
1
Step 214000
Ar 1.041706e+00 0.000000e+00 0.000000e+00
1
Step 215000
Ar 9.003985e-01 0.000000e+00 0.000000e+00
1
Step 216000
Ar 1.100880e+00 0.000000e+00 0.000000e+00
1
Step 217000
Ar 1.100749e+00 0.000000e+00 0.000000e+00
1
Step 218000
Ar 1.102999e+00 0.000000e+00 0.000000e+00
1
Step 219000
Ar 1.099176e+00 0.000000e+00 0.000000e+00
1
Step 220000
Ar 1.104344e+00 0.000000e+00 0.000000e+00
1
Step 221000
Ar 1.114790e+00 0.000000e+00 0.000000e+00
1
Step 222000
Ar 1.114742e+00 0.000000e+00 0.000000e+00
1
Step 223000
Ar 1.114380e+00 0.000000e+00 0.000000e+00
1
Step 224000
Ar 1.015874e+00 0.000000e+00 0.000000e+00
1
Step 225000
Ar 1.040863e+00 0.000000e+00 0.000000e+00
1
Step 226000
Ar 1.071641e+00 0.000000e+00 0.000000e+00
1
Step 227000
Ar 9.967713e-01 0.000000e+00 0.000000e+00
1
Step 228000
Ar 9.621366e-01 0.000000e+00 0.000000e+00
1
Step 229000
Ar 9.763935e-01 0.000000e+00 0.000000e+00
1
Step 230000
Ar 1.004385e+00 0.000000e+00 0.000000e+00
1
Step 231000
Ar 9.417706e-01 0.000000e+00 0.000000e+00
1
Step 232000
Ar 1.036947e+00 0.000000e+00 0.000000e+00
1
Step 233000
Ar 9.023901e-01 0.000000e+00 0.000000e+00
1
Step 234000
Ar 9.470360e-01 0.000000e+00 0.000000e+00
1
Step 235000
Ar 8.860977e-01 0.000000e+00 0.000000e+00
1
Step 236000
Ar 8.772477e-01 0.000000e+00 0.000000e+00
1
Step 237000
Ar 9.637195e-01 0.000000e+00 0.000000e+00
1
Step 238000
Ar 8.306850e-01 0.000000e+00 0.000000e+00
1
Step 239000
Ar 8.773016e-01 0.000000e+00 0.000000e+00
1
Step 240000
Ar 8.750764e-01 0.000000e+00 0.000000e+00
1
Step 241000
Ar 1.011674e+00 0.000000e+00 0.000000e+00
1
Step 242000
Ar 8.927454e-01 0.000000e+00 0.000000e+00
1
Step 243000
Ar 1.195653e+00 0.000000e+00 0.000000e+00
1
Step 244000
Ar 9.929385e-01 0.000000e+00 0.000000e+00
1
Step 245000
Ar 9.843850e-01 0.000000e+00 0.000000e+00
1
Step 246000
Ar 8.637702e-01 0.000000e+00 0.000000e+00
1
Step 247000
Ar 8.660982e-01 0.000000e+00 0.000000e+00
1
Step 248000
Ar 1.063170e+00 0.000000e+00 0.000000e+00
1
Step 249000
Ar 1.108558e+00 0.000000e+00 0.000000e+00
1
Step 250000
Ar 1.098813e+00 0.000000e+00 0.000000e+00
1
Step 251000
Ar 1.115339e+00 0.000000e+00 0.000000e+00
1
Step 252000
Ar 1.114640e+00 0.000000e+00 0.000000e+00
1
Step 253000
Ar 1.110324e+00 0.000000e+00 0.000000e+00
1
Step 254000
Ar 1.111944e+00 0.000000e+00 0.000000e+00
1
Step 255000
Ar 1.115520e+00 0.000000e+00 0.000000e+00
1
Step 256000
Ar 9.705101e-01 0.000000e+00 0.000000e+00
1
Step 257000
Ar 9.584342e-01 0.000000e+00 0.000000e+00
1
Step 258000
Ar 1.100741e+00 0.000000e+00 0.000000e+00
1
Step 259000
Ar 9.500806e-01 0.000000e+00 0.000000e+00
1
Step 260000
Ar 1.109214e+00 0.000000e+00 0.000000e+00
1
Step 261000
Ar 1.131662e+00 0.000000e+00 0.000000e+00
1
Step 262000
Ar 1.128700e+00 0.000000e+00 0.000000e+00
1
Step 263000
Ar 1.124819e+00 0.000000e+00 0.000000e+00
1
Step 264000
Ar 1.126090e+00 0.000000e+00 0.000000e+00
1
Step 265000
Ar 1.125025e+00 0.000000e+00 0.000000e+00
1
Step 266000
Ar 9.362735e-01 0.000000e+00 0.000000e+00
1
Step 267000
Ar 9.334328e-01 0.000000e+00 0.000000e+00
1
Step 268000
Ar 1.114952e+00 0.000000e+00 0.000000e+00
1
Step 269000
Ar 9.560551e-01 0.000000e+00 0.000000e+00
1
Step 270000
Ar 9.448065e-01 0.000000e+00 0.000000e+00
1
Step 271000
Ar 1.100667e+00 0.000000e+00 0.000000e+00
1
Step 272000
Ar 1.038645e+00 0.000000e+00 0.000000e+00
1
Step 273000
Ar 9.505943e-01 0.000000e+00 0.000000e+00
1
Step 274000
Ar 1.162464e+00 0.000000e+00 0.000000e+00
1
Step 275000
Ar 1.028426e+00 0.000000e+00 0.000000e+00
1
Step 276000
Ar 1.059313e+00 0.000000e+00 0.000000e+00
1
Step 277000
Ar 1.040533e+00 0.000000e+00 0.000000e+00
1
Step 278000
Ar 1.059245e+00 0.000000e+00 0.000000e+00
1
Step 279000
Ar 1.059472e+00 0.000000e+00 0.000000e+00
1
Step 280000
Ar 1.060053e+00 0.000000e+00 0.000000e+00
1
Step 281000
Ar 1.039564e+00 0.000000e+00 0.000000e+00
1
Step 282000
Ar 1.038273e+00 0.000000e+00 0.000000e+00
1
Step 283000
Ar 1.040784e+00 0.000000e+00 0.000000e+00
1
Step 284000
Ar 1.039759e+00 0.000000e+00 0.000000e+00
1
Step 285000
Ar 1.039471e+00 0.000000e+00 0.000000e+00
1
Step 286000
Ar 1.052841e+00 0.000000e+00 0.000000e+00
1
Step 287000
Ar 8.454767e-01 0.000000e+00 0.000000e+00
1
Step 288000
Ar 1.076660e+00 0.000000e+00 0.000000e+00
1
Step 289000
Ar 8.546712e-01 0.000000e+00 0.000000e+00
1
Step 290000
Ar 9.489655e-01 0.000000e+00 0.000000e+00
1
Step 291000
Ar 1.070557e+00 0.000000e+00 0.000000e+00
1
Step 292000
Ar 1.066676e+00 0.000000e+00 0.000000e+00
1
Step 293000
Ar 1.010432e+00 0.000000e+00 0.000000e+00
1
Step 294000
Ar 1.050906e+00 0.000000e+00 0.000000e+00
1
Step 295000
Ar 8.692154e-01 0.000000e+00 0.000000e+00
1
Step 296000
Ar 1.057141e+00 0.000000e+00 0.000000e+00
1
Step 297000
Ar 1.251383e+00 0.000000e+00 0.000000e+00
1
Step 298000
Ar 9.321861e-01 0.000000e+00 0.000000e+00
1
Step 299000
Ar 9.358627e-01 0.000000e+00 0.000000e+00
1
Step 300000
Ar 1.025645e+00 0.000000e+00 0.000000e+00
1
Step 301000
Ar 9.711255e-01 0.000000e+00 0.000000e+00
1
Step 302000
Ar 9.629938e-01 0.000000e+00 0.000000e+00
1
Step 303000
Ar 1.129262e+00 0.000000e+00 0.000000e+00
1
Step 304000
Ar 8.608868e-01 0.000000e+00 0.000000e+00
1
Step 305000
Ar 8.627960e-01 0.000000e+00 0.000000e+00
1
Step 306000
Ar 8.522631e-01 0.000000e+00 0.000000e+00
1
Step 307000
Ar 8.548235e-01 0.000000e+00 0.000000e+00
1
Step 308000
Ar 8.539115e-01 0.000000e+00 0.000000e+00
1
Step 309000
Ar 8.499123e-01 0.000000e+00 0.000000e+00
1
Step 310000
Ar 8.502104e-01 0.000000e+00 0.000000e+00
1
Step 311000
Ar 7.971046e-01 0.000000e+00 0.000000e+00
1
Step 312000
Ar 1.095857e+00 0.000000e+00 0.000000e+00
1
Step 313000
Ar 6.450174e-01 0.000000e+00 0.000000e+00
1
Step 314000
Ar 9.580537e-01 0.000000e+00 0.000000e+00
1
Step 315000
Ar 8.391852e-01 0.000000e+00 0.000000e+00
1
Step 316000
Ar 1.311745e+00 0.000000e+00 0.000000e+00
1
Step 317000
Ar 1.046034e+00 0.000000e+00 0.000000e+00
1
Step 318000
Ar 8.365825e-01 0.000000e+00 0.000000e+00
1
Step 319000
Ar 1.098877e+00 0.000000e+00 0.000000e+00
1
Step 320000
Ar 7.918401e-01 0.000000e+00 0.000000e+00
1
Step 321000
Ar 9.475944e-01 0.000000e+00 0.000000e+00
1
Step 322000
Ar 1.075855e+00 0.000000e+00 0.000000e+00
1
Step 323000
Ar 1.216386e+00 0.000000e+00 0.000000e+00
1
Step 324000
Ar 1.072429e+00 0.000000e+00 0.000000e+00
1
Step 325000
Ar 1.036509e+00 0.000000e+00 0.000000e+00
1
Step 326000
Ar 1.051273e+00 0.000000e+00 0.000000e+00
1
Step 327000
Ar 1.049501e+00 0.000000e+00 0.000000e+00
1
Step 328000
Ar 8.979712e-01 0.000000e+00 0.000000e+00
1
Step 329000
Ar 8.943677e-01 0.000000e+00 0.000000e+00
1
Step 330000
Ar 1.107715e+00 0.000000e+00 0.000000e+00
1
Step 331000
Ar 6.595134e-01 0.000000e+00 0.000000e+00
1
Step 332000
Ar 7.327380e-01 0.000000e+00 0.000000e+00
1
Step 333000
Ar 9.641594e-01 0.000000e+00 0.000000e+00
1
Step 334000
Ar 1.051111e+00 0.000000e+00 0.000000e+00
1
Step 335000
Ar 9.984170e-01 0.000000e+00 0.000000e+00
1
Step 336000
Ar 6.887752e-01 0.000000e+00 0.000000e+00
1
Step 337000
Ar -9.970502e-01 0.000000e+00 0.000000e+00
1
Step 338000
Ar -1.013208e+00 0.000000e+00 0.000000e+00
1
Step 339000
Ar -9.996484e-01 0.000000e+00 0.000000e+00
1
Step 340000
Ar -9.979382e-01 0.000000e+00 0.000000e+00
1
Step 341000
Ar -9.851432e-01 0.000000e+00 0.000000e+00
1
Step 342000
Ar -9.780938e-01 0.000000e+00 0.000000e+00
1
Step 343000
Ar -9.837335e-01 0.000000e+00 0.000000e+00
1
Step 344000
Ar -9.777074e-01 0.000000e+00 0.000000e+00
1
Step 345000
Ar -9.767694e-01 0.000000e+00 0.000000e+00
1
Step 346000
Ar -1.011476e+00 0.000000e+00 0.000000e+00
1
Step 347000
Ar -1.013664e+00 0.000000e+00 0.000000e+00
1
Step 348000
Ar -1.011462e+00 0.000000e+00 0.000000e+00
1
Step 349000
Ar -1.010568e+00 0.000000e+00 0.000000e+00
1
Step 350000
Ar -1.020941e+00 0.000000e+00 0.000000e+00
1
Step 351000
Ar -1.032216e+00 0.000000e+00 0.000000e+00
1
Step 352000
Ar -1.036555e+00 0.000000e+00 0.000000e+00
1
Step 353000
Ar -1.040553e+00 0.000000e+00 0.000000e+00
1
Step 354000
Ar -1.037118e+00 0.000000e+00 0.000000e+00
1
Step 355000
Ar -1.035558e+00 0.000000e+00 0.000000e+00
1
Step 356000
Ar -9.889715e-01 0.000000e+00 0.000000e+00
1
Step 357000
Ar -9.907311e-01 0.000000e+00 0.000000e+00
1
Step 358000
Ar -1.028268e+00 0.000000e+00 0.000000e+00
1
Step 359000
Ar -1.006600e+00 0.000000e+00 0.000000e+00
1
Step 360000
Ar -1.009132e+00 0.000000e+00 0.000000e+00
1
Step 361000
Ar -9.888942e-01 0.000000e+00 0.000000e+00
1
Step 362000
Ar -9.921495e-01 0.000000e+00 0.000000e+00
1
Step 363000
Ar -9.895157e-01 0.000000e+00 0.000000e+00
1
Step 364000
Ar -9.894544e-01 0.000000e+00 0.000000e+00
1
Step 365000
Ar -9.679741e-01 0.000000e+00 0.000000e+00
1
Step 366000
Ar -9.577526e-01 0.000000e+00 0.000000e+00
1
Step 367000
Ar -9.541590e-01 0.000000e+00 0.000000e+00
1
Step 368000
Ar -9.596186e-01 0.000000e+00 0.000000e+00
1
Step 369000
Ar -9.555193e-01 0.000000e+00 0.000000e+00
1
Step 370000
Ar -9.476112e-01 0.000000e+00 0.000000e+00
1
Step 371000
Ar -9.349727e-01 0.000000e+00 0.000000e+00
1
Step 372000
Ar -9.354737e-01 0.000000e+00 0.000000e+00
1
Step 373000
Ar -9.280777e-01 0.000000e+00 0.000000e+00
1
Step 374000
Ar -9.340585e-01 0.000000e+00 0.000000e+00
1
Step 375000
Ar -9.345267e-01 0.000000e+00 0.000000e+00
1
Step 376000
Ar -1.045627e+00 0.000000e+00 0.000000e+00
1
Step 377000
Ar -1.049701e+00 0.000000e+00 0.000000e+00
1
Step 378000
Ar -1.049604e+00 0.000000e+00 0.000000e+00
1
Step 379000
Ar -1.046384e+00 0.000000e+00 0.000000e+00
1
Step 380000
Ar -1.050989e+00 0.000000e+00 0.000000e+00
1
Step 381000
Ar -9.871935e-01 0.000000e+00 0.000000e+00
1
Step 382000
Ar -9.860515e-01 0.000000e+00 0.000000e+00
1
Step 383000
Ar -9.878232e-01 0.000000e+00 0.000000e+00
1
Step 384000
Ar -9.868613e-01 0.000000e+00 0.000000e+00
1
Step 385000
Ar -9.904826e-01 0.000000e+00 0.000000e+00
1
Step 386000
Ar -9.185082e-01 0.000000e+00 0.000000e+00
1
Step 387000
Ar -1.075971e+00 0.000000e+00 0.000000e+00
1
Step 388000
Ar -1.059732e+00 0.000000e+00 0.000000e+00
1
Step 389000
Ar -1.061967e+00 0.000000e+00 0.000000e+00
1
Step 390000
Ar -1.067009e+00 0.000000e+00 0.000000e+00
1
Step 391000
Ar -9.396936e-01 0.000000e+00 0.000000e+00
1
Step 392000
Ar -9.537266e-01 0.000000e+00 0.000000e+00
1
Step 393000
Ar -1.027190e+00 0.000000e+00 0.000000e+00
1
Step 394000
Ar -9.263773e-01 0.000000e+00 0.000000e+00
1
Step 395000
Ar -9.225089e-01 0.000000e+00 0.000000e+00
1
Step 396000
Ar -9.123333e-01 0.000000e+00 0.000000e+00
1
Step 397000
Ar -9.110977e-01 0.000000e+00 0.000000e+00
1
Step 398000
Ar -9.140635e-01 0.000000e+00 0.000000e+00
1
Step 399000
Ar -9.136775e-01 0.000000e+00 0.000000e+00
1
Step 400000
Ar -9.116041e-01 0.000000e+00 0.000000e+00
1
Step 401000
Ar -8.980142e-01 0.000000e+00 0.000000e+00
1
Step 402000
Ar -8.999827e-01 0.000000e+00 0.000000e+00
1
Step 403000
Ar -9.016115e-01 0.000000e+00 0.000000e+00
1
Step 404000
Ar -8.996974e-01 0.000000e+00 0.000000e+00
1
Step 405000
Ar -9.010749e-01 0.000000e+00 0.000000e+00
1
Step 406000
Ar -1.004171e+00 0.000000e+00 0.000000e+00
1
Step 407000
Ar -1.078905e+00 0.000000e+00 0.000000e+00
1
Step 408000
Ar -1.077210e+00 0.000000e+00 0.000000e+00
1
Step 409000
Ar -1.077025e+00 0.000000e+00 0.000000e+00
1
Step 410000
Ar -9.974415e-01 0.000000e+00 0.000000e+00
1
Step 411000
Ar -8.161530e-01 0.000000e+00 0.000000e+00
1
Step 412000
Ar -9.840829e-01 0.000000e+00 0.000000e+00
1
Step 413000
Ar -9.577281e-01 0.000000e+00 0.000000e+00
1
Step 414000
Ar -1.051230e+00 0.000000e+00 0.000000e+00
1
Step 415000
Ar -1.075407e+00 0.000000e+00 0.000000e+00
1
Step 416000
Ar -1.083716e+00 0.000000e+00 0.000000e+00
1
Step 417000
Ar -1.085861e+00 0.000000e+00 0.000000e+00
1
Step 418000
Ar -1.085100e+00 0.000000e+00 0.000000e+00
1
Step 419000
Ar -1.085319e+00 0.000000e+00 0.000000e+00
1
Step 420000
Ar -1.087262e+00 0.000000e+00 0.000000e+00
1
Step 421000
Ar -1.157450e+00 0.000000e+00 0.000000e+00
1
Step 422000
Ar -9.755188e-01 0.000000e+00 0.000000e+00
1
Step 423000
Ar -1.113346e+00 0.000000e+00 0.000000e+00
1
Step 424000
Ar -9.583803e-01 0.000000e+00 0.000000e+00
1
Step 425000
Ar -9.599452e-01 0.000000e+00 0.000000e+00
1
Step 426000
Ar -1.015475e+00 0.000000e+00 0.000000e+00
1
Step 427000
Ar -9.830491e-01 0.000000e+00 0.000000e+00
1
Step 428000
Ar -1.040819e+00 0.000000e+00 0.000000e+00
1
Step 429000
Ar -9.184773e-01 0.000000e+00 0.000000e+00
1
Step 430000
Ar -8.897687e-01 0.000000e+00 0.000000e+00
1
Step 431000
Ar -8.789018e-01 0.000000e+00 0.000000e+00
1
Step 432000
Ar -8.789602e-01 0.000000e+00 0.000000e+00
1
Step 433000
Ar -8.822176e-01 0.000000e+00 0.000000e+00
1
Step 434000
Ar -1.028184e+00 0.000000e+00 0.000000e+00
1
Step 435000
Ar -1.048570e+00 0.000000e+00 0.000000e+00
1
Step 436000
Ar -1.192161e+00 0.000000e+00 0.000000e+00
1
Step 437000
Ar -1.028079e+00 0.000000e+00 0.000000e+00
1
Step 438000
Ar -1.024554e+00 0.000000e+00 0.000000e+00
1
Step 439000
Ar -9.444250e-01 0.000000e+00 0.000000e+00
1
Step 440000
Ar -9.574184e-01 0.000000e+00 0.000000e+00
1
Step 441000
Ar -9.400197e-01 0.000000e+00 0.000000e+00
1
Step 442000
Ar -8.804983e-01 0.000000e+00 0.000000e+00
1
Step 443000
Ar -8.798012e-01 0.000000e+00 0.000000e+00
1
Step 444000
Ar -8.818311e-01 0.000000e+00 0.000000e+00
1
Step 445000
Ar -8.848793e-01 0.000000e+00 0.000000e+00
1
Step 446000
Ar -8.744834e-01 0.000000e+00 0.000000e+00
1
Step 447000
Ar -8.758752e-01 0.000000e+00 0.000000e+00
1
Step 448000
Ar -8.750734e-01 0.000000e+00 0.000000e+00
1
Step 449000
Ar -8.722240e-01 0.000000e+00 0.000000e+00
1
Step 450000
Ar -8.760163e-01 0.000000e+00 0.000000e+00
1
Step 451000
Ar -8.670844e-01 0.000000e+00 0.000000e+00
1
Step 452000
Ar -8.672201e-01 0.000000e+00 0.000000e+00
1
Step 453000
Ar -8.664394e-01 0.000000e+00 0.000000e+00
1
Step 454000
Ar -8.667118e-01 0.000000e+00 0.000000e+00
1
Step 455000
Ar -8.710357e-01 0.000000e+00 0.000000e+00
1
Step 456000
Ar -9.412301e-01 0.000000e+00 0.000000e+00
1
Step 457000
Ar -1.096438e+00 0.000000e+00 0.000000e+00
1
Step 458000
Ar -1.095828e+00 0.000000e+00 0.000000e+00
1
Step 459000
Ar -1.092158e+00 0.000000e+00 0.000000e+00
1
Step 460000
Ar -8.795877e-01 0.000000e+00 0.000000e+00
1
Step 461000
Ar -9.493069e-01 0.000000e+00 0.000000e+00
1
Step 462000
Ar -8.591299e-01 0.000000e+00 0.000000e+00
1
Step 463000
Ar -8.665805e-01 0.000000e+00 0.000000e+00
1
Step 464000
Ar -8.571669e-01 0.000000e+00 0.000000e+00
1
Step 465000
Ar -8.597030e-01 0.000000e+00 0.000000e+00
1
Step 466000
Ar -8.491245e-01 0.000000e+00 0.000000e+00
1
Step 467000
Ar -8.490499e-01 0.000000e+00 0.000000e+00
1
Step 468000
Ar -8.531169e-01 0.000000e+00 0.000000e+00
1
Step 469000
Ar -8.483557e-01 0.000000e+00 0.000000e+00
1
Step 470000
Ar -8.522468e-01 0.000000e+00 0.000000e+00
1
Step 471000
Ar -8.417686e-01 0.000000e+00 0.000000e+00
1
Step 472000
Ar -8.455921e-01 0.000000e+00 0.000000e+00
1
Step 473000
Ar -8.451719e-01 0.000000e+00 0.000000e+00
1
Step 474000
Ar -8.384687e-01 0.000000e+00 0.000000e+00
1
Step 475000
Ar -8.405146e-01 0.000000e+00 0.000000e+00
1
Step 476000
Ar -1.111527e+00 0.000000e+00 0.000000e+00
1
Step 477000
Ar -9.395364e-01 0.000000e+00 0.000000e+00
1
Step 478000
Ar -1.032980e+00 0.000000e+00 0.000000e+00
1
Step 479000
Ar -9.450331e-01 0.000000e+00 0.000000e+00
1
Step 480000
Ar -9.399702e-01 0.000000e+00 0.000000e+00
1
Step 481000
Ar -8.883960e-01 0.000000e+00 0.000000e+00
1
Step 482000
Ar -8.728762e-01 0.000000e+00 0.000000e+00
1
Step 483000
Ar -9.849696e-01 0.000000e+00 0.000000e+00
1
Step 484000
Ar -1.030273e+00 0.000000e+00 0.000000e+00
1
Step 485000
Ar -1.022027e+00 0.000000e+00 0.000000e+00
1
Step 486000
Ar -9.469466e-01 0.000000e+00 0.000000e+00
1
Step 487000
Ar -8.661747e-01 0.000000e+00 0.000000e+00
1
Step 488000
Ar -9.546410e-01 0.000000e+00 0.000000e+00
1
Step 489000
Ar -9.496868e-01 0.000000e+00 0.000000e+00
1
Step 490000
Ar -9.499672e-01 0.000000e+00 0.000000e+00
1
Step 491000
Ar -8.084636e-01 0.000000e+00 0.000000e+00
1
Step 492000
Ar -7.017051e-01 0.000000e+00 0.000000e+00
1
Step 493000
Ar -9.989097e-01 0.000000e+00 0.000000e+00
1
Step 494000
Ar -1.122666e+00 0.000000e+00 0.000000e+00
1
Step 495000
Ar -1.098705e+00 0.000000e+00 0.000000e+00
1
Step 496000
Ar -1.007289e+00 0.000000e+00 0.000000e+00
1
Step 497000
Ar -1.014603e+00 0.000000e+00 0.000000e+00
1
Step 498000
Ar -8.807860e-01 0.000000e+00 0.000000e+00
1
Step 499000
Ar -7.065128e-01 0.000000e+00 0.000000e+00
1
Step 500000
Ar -1.012346e+00 0.000000e+00 0.000000e+00
1
Step 501000
Ar -1.001372e+00 0.000000e+00 0.000000e+00
1
Step 502000
Ar -7.415433e-01 0.000000e+00 0.000000e+00
1
Step 503000
Ar -1.035362e+00 0.000000e+00 0.000000e+00
1
Step 504000
Ar -1.020605e+00 0.000000e+00 0.000000e+00
1
Step 505000
Ar -9.250200e-01 0.000000e+00 0.000000e+00
1
Step 506000
Ar -1.105706e+00 0.000000e+00 0.000000e+00
1
Step 507000
Ar -8.360956e-01 0.000000e+00 0.000000e+00
1
Step 508000
Ar -1.032908e+00 0.000000e+00 0.000000e+00
1
Step 509000
Ar -9.320177e-01 0.000000e+00 0.000000e+00
1
Step 510000
Ar -9.911150e-01 0.000000e+00 0.000000e+00
1
Step 511000
Ar -1.060545e+00 0.000000e+00 0.000000e+00
1
Step 512000
Ar -1.169051e+00 0.000000e+00 0.000000e+00
1
Step 513000
Ar -8.620518e-01 0.000000e+00 0.000000e+00
1
Step 514000
Ar -8.331604e-01 0.000000e+00 0.000000e+00
1
Step 515000
Ar -8.346164e-01 0.000000e+00 0.000000e+00
1
Step 516000
Ar -8.515447e-01 0.000000e+00 0.000000e+00
1
Step 517000
Ar -1.107753e+00 0.000000e+00 0.000000e+00
1
Step 518000
Ar -8.101155e-01 0.000000e+00 0.000000e+00
1
Step 519000
Ar -1.051196e+00 0.000000e+00 0.000000e+00
1
Step 520000
Ar -1.179685e+00 0.000000e+00 0.000000e+00
1
Step 521000
Ar -1.068886e+00 0.000000e+00 0.000000e+00
1
Step 522000
Ar -1.137511e+00 0.000000e+00 0.000000e+00
1
Step 523000
Ar -9.323422e-01 0.000000e+00 0.000000e+00
1
Step 524000
Ar -1.198209e+00 0.000000e+00 0.000000e+00
1
Step 525000
Ar -9.652439e-01 0.000000e+00 0.000000e+00
1
Step 526000
Ar -1.189199e+00 0.000000e+00 0.000000e+00
1
Step 527000
Ar -1.119809e+00 0.000000e+00 0.000000e+00
1
Step 528000
Ar -1.027768e+00 0.000000e+00 0.000000e+00
1
Step 529000
Ar -8.122435e-01 0.000000e+00 0.000000e+00
1
Step 530000
Ar -1.074577e+00 0.000000e+00 0.000000e+00
1
Step 531000
Ar -1.127300e+00 0.000000e+00 0.000000e+00
1
Step 532000
Ar -9.528772e-01 0.000000e+00 0.000000e+00
1
Step 533000
Ar -9.325693e-01 0.000000e+00 0.000000e+00
1
Step 534000
Ar -9.390009e-01 0.000000e+00 0.000000e+00
1
Step 535000
Ar -9.384062e-01 0.000000e+00 0.000000e+00
1
Step 536000
Ar -1.107459e+00 0.000000e+00 0.000000e+00
1
Step 537000
Ar -9.693285e-01 0.000000e+00 0.000000e+00
1
Step 538000
Ar -1.038737e+00 0.000000e+00 0.000000e+00
1
Step 539000
Ar -1.042332e+00 0.000000e+00 0.000000e+00
1
Step 540000
Ar -1.031908e+00 0.000000e+00 0.000000e+00
1
Step 541000
Ar -9.093605e-01 0.000000e+00 0.000000e+00
1
Step 542000
Ar -8.277694e-01 0.000000e+00 0.000000e+00
1
Step 543000
Ar -8.262001e-01 0.000000e+00 0.000000e+00
1
Step 544000
Ar -8.245617e-01 0.000000e+00 0.000000e+00
1
Step 545000
Ar -8.218832e-01 0.000000e+00 0.000000e+00
1
Step 546000
Ar -7.894669e-01 0.000000e+00 0.000000e+00
1
Step 547000
Ar -1.089628e+00 0.000000e+00 0.000000e+00
1
Step 548000
Ar -1.063683e+00 0.000000e+00 0.000000e+00
1
Step 549000
Ar -9.266208e-01 0.000000e+00 0.000000e+00
1
Step 550000
Ar -9.494562e-01 0.000000e+00 0.000000e+00
1
Step 551000
Ar -9.790194e-01 0.000000e+00 0.000000e+00
1
Step 552000
Ar -1.082851e+00 0.000000e+00 0.000000e+00
1
Step 553000
Ar -1.082220e+00 0.000000e+00 0.000000e+00
1
Step 554000
Ar -1.098420e+00 0.000000e+00 0.000000e+00
1
Step 555000
Ar -1.139394e+00 0.000000e+00 0.000000e+00
1
Step 556000
Ar -9.536432e-01 0.000000e+00 0.000000e+00
1
Step 557000
Ar -7.492908e-01 0.000000e+00 0.000000e+00
1
Step 558000
Ar -1.295784e+00 0.000000e+00 0.000000e+00
1
Step 559000
Ar -1.162984e+00 0.000000e+00 0.000000e+00
1
Step 560000
Ar -1.126119e+00 0.000000e+00 0.000000e+00
1
Step 561000
Ar -1.035530e+00 0.000000e+00 0.000000e+00
1
Step 562000
Ar -1.088688e+00 0.000000e+00 0.000000e+00
1
Step 563000
Ar -1.102870e+00 0.000000e+00 0.000000e+00
1
Step 564000
Ar -8.286483e-01 0.000000e+00 0.000000e+00
1
Step 565000
Ar -1.063090e+00 0.000000e+00 0.000000e+00
1
Step 566000
Ar -8.077510e-01 0.000000e+00 0.000000e+00
1
Step 567000
Ar -1.212596e+00 0.000000e+00 0.000000e+00
1
Step 568000
Ar -1.080889e+00 0.000000e+00 0.000000e+00
1
Step 569000
Ar -7.687988e-01 0.000000e+00 0.000000e+00
1
Step 570000
Ar -6.853454e-01 0.000000e+00 0.000000e+00
1
Step 571000
Ar -1.026872e+00 0.000000e+00 0.000000e+00
1
Step 572000
Ar -8.903063e-01 0.000000e+00 0.000000e+00
1
Step 573000
Ar -1.192349e+00 0.000000e+00 0.000000e+00
1
Step 574000
Ar -1.009639e+00 0.000000e+00 0.000000e+00
1
Step 575000
Ar -1.153593e+00 0.000000e+00 0.000000e+00
1
Step 576000
Ar -9.810170e-01 0.000000e+00 0.000000e+00
1
Step 577000
Ar -1.083063e+00 0.000000e+00 0.000000e+00
1
Step 578000
Ar -8.080767e-01 0.000000e+00 0.000000e+00
1
Step 579000
Ar -5.716731e-01 0.000000e+00 0.000000e+00
1
Step 580000
Ar -1.240890e+00 0.000000e+00 0.000000e+00
1
Step 581000
Ar -1.020186e+00 0.000000e+00 0.000000e+00
1
Step 582000
Ar -8.701726e-01 0.000000e+00 0.000000e+00
1
Step 583000
Ar -8.727998e-01 0.000000e+00 0.000000e+00
1
Step 584000
Ar -1.048139e+00 0.000000e+00 0.000000e+00
1
Step 585000
Ar -9.701562e-01 0.000000e+00 0.000000e+00
1
Step 586000
Ar -9.092168e-01 0.000000e+00 0.000000e+00
1
Step 587000
Ar -9.941450e-01 0.000000e+00 0.000000e+00
1
Step 588000
Ar -9.125099e-01 0.000000e+00 0.000000e+00
1
Step 589000
Ar -1.100097e+00 0.000000e+00 0.000000e+00
1
Step 590000
Ar -1.202696e+00 0.000000e+00 0.000000e+00
1
Step 591000
Ar -8.479000e-01 0.000000e+00 0.000000e+00
1
Step 592000
Ar -1.136030e+00 0.000000e+00 0.000000e+00
1
Step 593000
Ar -7.944919e-01 0.000000e+00 0.000000e+00
1
Step 594000
Ar -9.754910e-01 0.000000e+00 0.000000e+00
1
Step 595000
Ar -1.108921e+00 0.000000e+00 0.000000e+00
1
Step 596000
Ar -5.973411e-01 0.000000e+00 0.000000e+00
1
Step 597000
Ar -1.247421e+00 0.000000e+00 0.000000e+00
1
Step 598000
Ar -1.081547e+00 0.000000e+00 0.000000e+00
1
Step 599000
Ar -8.334295e-01 0.000000e+00 0.000000e+00
1
Step 600000
Ar -1.118950e+00 0.000000e+00 0.000000e+00
1
Step 601000
Ar -8.611468e-01 0.000000e+00 0.000000e+00
1
Step 602000
Ar -7.317239e-01 0.000000e+00 0.000000e+00
1
Step 603000
Ar -1.010719e+00 0.000000e+00 0.000000e+00
1
Step 604000
Ar -7.516500e-01 0.000000e+00 0.000000e+00
1
Step 605000
Ar 1.019371e+00 0.000000e+00 0.000000e+00
1
Step 606000
Ar 1.140812e+00 0.000000e+00 0.000000e+00
1
Step 607000
Ar 1.121274e+00 0.000000e+00 0.000000e+00
1
Step 608000
Ar 1.116920e+00 0.000000e+00 0.000000e+00
1
Step 609000
Ar 1.118123e+00 0.000000e+00 0.000000e+00
1
Step 610000
Ar 1.140731e+00 0.000000e+00 0.000000e+00
1
Step 611000
Ar 9.467783e-01 0.000000e+00 0.000000e+00
1
Step 612000
Ar 1.069787e+00 0.000000e+00 0.000000e+00
1
Step 613000
Ar 1.112636e+00 0.000000e+00 0.000000e+00
1
Step 614000
Ar 8.274907e-01 0.000000e+00 0.000000e+00
1
Step 615000
Ar 7.214837e-01 0.000000e+00 0.000000e+00
1
Step 616000
Ar 1.032724e+00 0.000000e+00 0.000000e+00
1
Step 617000
Ar 9.617326e-01 0.000000e+00 0.000000e+00
1
Step 618000
Ar 8.139514e-01 0.000000e+00 0.000000e+00
1
Step 619000
Ar 7.309583e-01 0.000000e+00 0.000000e+00
1
Step 620000
Ar 1.225452e+00 0.000000e+00 0.000000e+00
1
Step 621000
Ar 8.289526e-01 0.000000e+00 0.000000e+00
1
Step 622000
Ar 9.158804e-01 0.000000e+00 0.000000e+00
1
Step 623000
Ar 1.136184e+00 0.000000e+00 0.000000e+00
1
Step 624000
Ar 1.116862e+00 0.000000e+00 0.000000e+00
1
Step 625000
Ar 1.127073e+00 0.000000e+00 0.000000e+00
1
Step 626000
Ar 1.248056e+00 0.000000e+00 0.000000e+00
1
Step 627000
Ar 8.692341e-01 0.000000e+00 0.000000e+00
1
Step 628000
Ar 1.102763e+00 0.000000e+00 0.000000e+00
1
Step 629000
Ar 1.277298e+00 0.000000e+00 0.000000e+00
1
Step 630000
Ar 1.048078e+00 0.000000e+00 0.000000e+00
1
Step 631000
Ar 1.183638e+00 0.000000e+00 0.000000e+00
1
Step 632000
Ar 7.466361e-01 0.000000e+00 0.000000e+00
1
Step 633000
Ar 9.318411e-01 0.000000e+00 0.000000e+00
1
Step 634000
Ar 9.312530e-01 0.000000e+00 0.000000e+00
1
Step 635000
Ar 1.143823e+00 0.000000e+00 0.000000e+00
1
Step 636000
Ar 9.263463e-01 0.000000e+00 0.000000e+00
1
Step 637000
Ar 9.333520e-01 0.000000e+00 0.000000e+00
1
Step 638000
Ar 9.317937e-01 0.000000e+00 0.000000e+00
1
Step 639000
Ar 9.301918e-01 0.000000e+00 0.000000e+00
1
Step 640000
Ar 7.358762e-01 0.000000e+00 0.000000e+00
1
Step 641000
Ar 1.070625e+00 0.000000e+00 0.000000e+00
1
Step 642000
Ar 9.345628e-01 0.000000e+00 0.000000e+00
1
Step 643000
Ar 9.310453e-01 0.000000e+00 0.000000e+00
1
Step 644000
Ar 9.704373e-01 0.000000e+00 0.000000e+00
1
Step 645000
Ar 9.680019e-01 0.000000e+00 0.000000e+00
1
Step 646000
Ar 1.151414e+00 0.000000e+00 0.000000e+00
1
Step 647000
Ar 1.065906e+00 0.000000e+00 0.000000e+00
1
Step 648000
Ar 1.075284e+00 0.000000e+00 0.000000e+00
1
Step 649000
Ar 1.071863e+00 0.000000e+00 0.000000e+00
1
Step 650000