1
Step 120000
Ar 1.017411e+00 0.000000e+00 0.000000e+00
1
Step 121000
Ar 1.002727e+00 0.000000e+00 0.000000e+00
1
Step 122000
Ar 1.020386e+00 0.000000e+00 0.000000e+00
1
Step 123000
Ar 9.924132e-01 0.000000e+00 0.000000e+00
1
Step 124000
Ar 9.988805e-01 0.000000e+00 0.000000e+00
1
Step 125000
Ar 1.000032e+00 0.000000e+00 0.000000e+00
1
Step 126000
Ar 1.018472e+00 0.000000e+00 0.000000e+00
1
Step 127000
Ar 1.026768e+00 0.000000e+00 0.000000e+00
1
Step 128000
Ar 1.010996e+00 0.000000e+00 0.000000e+00
1
Step 129000
Ar 1.019830e+00 0.000000e+00 0.000000e+00
1
Step 130000
Ar 1.015293e+00 0.000000e+00 0.000000e+00
1
Step 131000
Ar 1.028658e+00 0.000000e+00 0.000000e+00
1
Step 132000
Ar 1.033817e+00 0.000000e+00 0.000000e+00
1
Step 133000
Ar 1.026200e+00 0.000000e+00 0.000000e+00
1
Step 134000
Ar 1.025884e+00 0.000000e+00 0.000000e+00
1
Step 135000
Ar 1.034786e+00 0.000000e+00 0.000000e+00
1
Step 136000
Ar 9.797408e-01 0.000000e+00 0.000000e+00
1
Step 137000
Ar 9.807065e-01 0.000000e+00 0.000000e+00
1
Step 138000
Ar 9.731445e-01 0.000000e+00 0.000000e+00
1
Step 139000
Ar 9.841138e-01 0.000000e+00 0.000000e+00
1
Step 140000
Ar 9.854927e-01 0.000000e+00 0.000000e+00
1
Step 141000
Ar 9.670665e-01 0.000000e+00 0.000000e+00
1
Step 142000
Ar 9.705561e-01 0.000000e+00 0.000000e+00
1
Step 143000
Ar 9.722719e-01 0.000000e+00 0.000000e+00
1
Step 144000
Ar 9.635943e-01 0.000000e+00 0.000000e+00
1
Step 145000
Ar 9.621148e-01 0.000000e+00 0.000000e+00
1
Step 146000
Ar 9.508131e-01 0.000000e+00 0.000000e+00
1
Step 147000
Ar 9.468018e-01 0.000000e+00 0.000000e+00
1
Step 148000
Ar 9.417240e-01 0.000000e+00 0.000000e+00
1
Step 149000
Ar 9.507593e-01 0.000000e+00 0.000000e+00
1
Step 150000
Ar 9.524707e-01 0.000000e+00 0.000000e+00
1
Step 151000
Ar 9.408754e-01 0.000000e+00 0.000000e+00
1
Step 152000
Ar 9.353860e-01 0.000000e+00 0.000000e+00
1
Step 153000
Ar 9.401115e-01 0.000000e+00 0.000000e+00
1
Step 154000
Ar 9.427481e-01 0.000000e+00 0.000000e+00
1
Step 155000
Ar 9.392410e-01 0.000000e+00 0.000000e+00
1
Step 156000
Ar 9.277873e-01 0.000000e+00 0.000000e+00
1
Step 157000
Ar 9.332969e-01 0.000000e+00 0.000000e+00
1
Step 158000
Ar 9.354391e-01 0.000000e+00 0.000000e+00
1
Step 159000
Ar 9.275800e-01 0.000000e+00 0.000000e+00
1
Step 160000
Ar 9.924565e-01 0.000000e+00 0.000000e+00
1
Step 161000
Ar 1.043549e+00 0.000000e+00 0.000000e+00
1
Step 162000
Ar 1.045905e+00 0.000000e+00 0.000000e+00
1
Step 163000
Ar 1.046545e+00 0.000000e+00 0.000000e+00
1
Step 164000
Ar 1.049609e+00 0.000000e+00 0.000000e+00
1
Step 165000
Ar 1.052277e+00 0.000000e+00 0.000000e+00
1
Step 166000
Ar 9.281257e-01 0.000000e+00 0.000000e+00
1
Step 167000
Ar 9.219196e-01 0.000000e+00 0.000000e+00
1
Step 168000
Ar 9.298956e-01 0.000000e+00 0.000000e+00
1
Step 169000
Ar 9.248336e-01 0.000000e+00 0.000000e+00
1
Step 170000
Ar 9.276611e-01 0.000000e+00 0.000000e+00
1
Step 171000
Ar 9.149838e-01 0.000000e+00 0.000000e+00
1
Step 172000
Ar 9.199639e-01 0.000000e+00 0.000000e+00
1
Step 173000
Ar 9.136814e-01 0.000000e+00 0.000000e+00
1
Step 174000
Ar 9.194088e-01 0.000000e+00 0.000000e+00
1
Step 175000
Ar 9.185402e-01 0.000000e+00 0.000000e+00
1
Step 176000
Ar 9.050010e-01 0.000000e+00 0.000000e+00
1
Step 177000
Ar 9.100587e-01 0.000000e+00 0.000000e+00
1
Step 178000
Ar 9.094615e-01 0.000000e+00 0.000000e+00
1
Step 179000
Ar 9.054889e-01 0.000000e+00 0.000000e+00
1
Step 180000
Ar 9.036981e-01 0.000000e+00 0.000000e+00
1
Step 181000
Ar 1.062733e+00 0.000000e+00 0.000000e+00
1
Step 182000
Ar 1.063512e+00 0.000000e+00 0.000000e+00
1
Step 183000
Ar 1.062546e+00 0.000000e+00 0.000000e+00
1
Step 184000
Ar 1.066236e+00 0.000000e+00 0.000000e+00
1
Step 185000
Ar 1.067506e+00 0.000000e+00 0.000000e+00
1
Step 186000
Ar 9.495465e-01 0.000000e+00 0.000000e+00
1
Step 187000
Ar 1.024931e+00 0.000000e+00 0.000000e+00
1
Step 188000
Ar 1.024378e+00 0.000000e+00 0.000000e+00
1
Step 189000
Ar 9.738404e-01 0.000000e+00 0.000000e+00
1
Step 190000
Ar 9.735977e-01 0.000000e+00 0.000000e+00
1
Step 191000
Ar 9.776638e-01 0.000000e+00 0.000000e+00
1
Step 192000
Ar 9.822637e-01 0.000000e+00 0.000000e+00
1
Step 193000
Ar 9.773861e-01 0.000000e+00 0.000000e+00
1
Step 194000
Ar 9.790513e-01 0.000000e+00 0.000000e+00
1
Step 195000
Ar 1.128315e+00 0.000000e+00 0.000000e+00
1
Step 196000
Ar 1.076616e+00 0.000000e+00 0.000000e+00
1
Step 197000
Ar 1.076265e+00 0.000000e+00 0.000000e+00
1
Step 198000
Ar 1.078127e+00 0.000000e+00 0.000000e+00
1
Step 199000
Ar 1.079950e+00 0.000000e+00 0.000000e+00
1
Step 200000
Ar 1.079530e+00 0.000000e+00 0.000000e+00
1
Step 201000
Ar 9.530992e-01 0.000000e+00 0.000000e+00
1
Step 202000
Ar 9.767805e-01 0.000000e+00 0.000000e+00
1
Step 203000
Ar 1.024181e+00 0.000000e+00 0.000000e+00
1
Step 204000
Ar 9.427049e-01 0.000000e+00 0.000000e+00
1
Step 205000
Ar 9.209053e-01 0.000000e+00 0.000000e+00
1
Step 206000
Ar 9.820239e-01 0.000000e+00 0.000000e+00
1
Step 207000
Ar 9.772678e-01 0.000000e+00 0.000000e+00
1
Step 208000
Ar 9.686456e-01 0.000000e+00 0.000000e+00
1
Step 209000
Ar 9.822154e-01 0.000000e+00 0.000000e+00
1
Step 210000
Ar 9.794618e-01 0.000000e+00 0.000000e+00
1
Step 211000
Ar 7.293145e-01 0.000000e+00 0.000000e+00
1
Step 212000
Ar 1.010804e+00 0.000000e+00 0.000000e+00
1
Step 213000
Ar 9.564536e-01 0.000000e+00 0.000000e+00
1
Step 214000
Ar 9.901869e-01 0.000000e+00 0.000000e+00
1
Step 215000
Ar 8.949513e-01 0.000000e+00 0.000000e+00
1
Step 216000
Ar 8.830155e-01 0.000000e+00 0.000000e+00
1
Step 217000
Ar 8.825831e-01 0.000000e+00 0.000000e+00
1
Step 218000
Ar 8.962158e-01 0.000000e+00 0.000000e+00
1
Step 219000
Ar 9.659584e-01 0.000000e+00 0.000000e+00
1
Step 220000
Ar 1.027029e+00 0.000000e+00 0.000000e+00
1
Step 221000
Ar 8.784243e-01 0.000000e+00 0.000000e+00
1
Step 222000
Ar 9.826448e-01 0.000000e+00 0.000000e+00
1
Step 223000
Ar 1.046642e+00 0.000000e+00 0.000000e+00
1
Step 224000
Ar 9.680251e-01 0.000000e+00 0.000000e+00
1
Step 225000
Ar 1.117343e+00 0.000000e+00 0.000000e+00
1
Step 226000
Ar 9.215292e-01 0.000000e+00 0.000000e+00
1
Step 227000
Ar 1.045814e+00 0.000000e+00 0.000000e+00
1
Step 228000
Ar 1.002593e+00 0.000000e+00 0.000000e+00
1
Step 229000
Ar 9.012580e-01 0.000000e+00 0.000000e+00
1
Step 230000
Ar 1.102612e+00 0.000000e+00 0.000000e+00
1
Step 231000
Ar 8.971651e-01 0.000000e+00 0.000000e+00
1
Step 232000
Ar 9.629474e-01 0.000000e+00 0.000000e+00
1
Step 233000
Ar 8.795431e-01 0.000000e+00 0.000000e+00
1
Step 234000
Ar 8.779081e-01 0.000000e+00 0.000000e+00
1
Step 235000
Ar 8.842659e-01 0.000000e+00 0.000000e+00
1
Step 236000
Ar 8.718511e-01 0.000000e+00 0.000000e+00
1
Step 237000
Ar 8.741041e-01 0.000000e+00 0.000000e+00
1
Step 238000
Ar 8.760216e-01 0.000000e+00 0.000000e+00
1
Step 239000
Ar 8.703961e-01 0.000000e+00 0.000000e+00
1
Step 240000
Ar 1.057493e+00 0.000000e+00 0.000000e+00
1
Step 241000
Ar 8.454370e-01 0.000000e+00 0.000000e+00
1
Step 242000
Ar 8.679319e-01 0.000000e+00 0.000000e+00
1
Step 243000
Ar 1.061904e+00 0.000000e+00 0.000000e+00
1
Step 244000
Ar 1.066257e+00 0.000000e+00 0.000000e+00
1
Step 245000
Ar 1.063135e+00 0.000000e+00 0.000000e+00
1
Step 246000
Ar 1.032470e+00 0.000000e+00 0.000000e+00
1
Step 247000
Ar 1.052359e+00 0.000000e+00 0.000000e+00
1
Step 248000
Ar 1.171874e+00 0.000000e+00 0.000000e+00
1
Step 249000
Ar 1.240632e+00 0.000000e+00 0.000000e+00
1
Step 250000
Ar 1.007073e+00 0.000000e+00 0.000000e+00
1
Step 251000
Ar 8.785244e-01 0.000000e+00 0.000000e+00
1
Step 252000
Ar 1.023151e+00 0.000000e+00 0.000000e+00
1
Step 253000
Ar 1.020676e+00 0.000000e+00 0.000000e+00
1
Step 254000
Ar 1.042985e+00 0.000000e+00 0.000000e+00
1
Step 255000
Ar 1.004013e+00 0.000000e+00 0.000000e+00
1
Step 256000
Ar 1.035411e+00 0.000000e+00 0.000000e+00
1
Step 257000
Ar 9.192328e-01 0.000000e+00 0.000000e+00
1
Step 258000
Ar 8.715684e-01 0.000000e+00 0.000000e+00
1
Step 259000
Ar 9.954329e-01 0.000000e+00 0.000000e+00
1
Step 260000
Ar 9.931027e-01 0.000000e+00 0.000000e+00
1
Step 261000
Ar 1.088356e+00 0.000000e+00 0.000000e+00
1
Step 262000
Ar 9.523115e-01 0.000000e+00 0.000000e+00
1
Step 263000
Ar 9.960642e-01 0.000000e+00 0.000000e+00
1
Step 264000
Ar 1.099601e+00 0.000000e+00 0.000000e+00
1
Step 265000
Ar 8.979667e-01 0.000000e+00 0.000000e+00
1
Step 266000
Ar 8.037684e-01 0.000000e+00 0.000000e+00
1
Step 267000
Ar 8.767614e-01 0.000000e+00 0.000000e+00
1
Step 268000
Ar 8.790388e-01 0.000000e+00 0.000000e+00
1
Step 269000
Ar 8.768884e-01 0.000000e+00 0.000000e+00
1
Step 270000
Ar 8.737233e-01 0.000000e+00 0.000000e+00
1
Step 271000
Ar 1.013519e+00 0.000000e+00 0.000000e+00
1
Step 272000
Ar 1.020363e+00 0.000000e+00 0.000000e+00
1
Step 273000
Ar 1.061292e+00 0.000000e+00 0.000000e+00
1
Step 274000
Ar 1.091738e+00 0.000000e+00 0.000000e+00
1
Step 275000
Ar 1.086937e+00 0.000000e+00 0.000000e+00
1
Step 276000
Ar 8.383987e-01 0.000000e+00 0.000000e+00
1
Step 277000
Ar 6.032996e-01 0.000000e+00 0.000000e+00
1
Step 278000
Ar 8.215593e-01 0.000000e+00 0.000000e+00
1
Step 279000
Ar 9.607654e-01 0.000000e+00 0.000000e+00
1
Step 280000
Ar 9.646695e-01 0.000000e+00 0.000000e+00
1
Step 281000
Ar 8.514289e-01 0.000000e+00 0.000000e+00
1
Step 282000
Ar 1.054980e+00 0.000000e+00 0.000000e+00
1
Step 283000
Ar 1.025329e+00 0.000000e+00 0.000000e+00
1
Step 284000
Ar 1.023882e+00 0.000000e+00 0.000000e+00
1
Step 285000
Ar 1.020873e+00 0.000000e+00 0.000000e+00
1
Step 286000
Ar 9.887755e-01 0.000000e+00 0.000000e+00
1
Step 287000
Ar 1.077362e+00 0.000000e+00 0.000000e+00
1
Step 288000
Ar 9.800656e-01 0.000000e+00 0.000000e+00
1
Step 289000
Ar 9.101439e-01 0.000000e+00 0.000000e+00
1
Step 290000
Ar 1.136090e+00 0.000000e+00 0.000000e+00
1
Step 291000
Ar 9.700284e-01 0.000000e+00 0.000000e+00
1
Step 292000
Ar 1.042500e+00 0.000000e+00 0.000000e+00
1
Step 293000
Ar 1.136504e+00 0.000000e+00 0.000000e+00
1
Step 294000
Ar 1.309424e+00 0.000000e+00 0.000000e+00
1
Step 295000
Ar 9.704961e-01 0.000000e+00 0.000000e+00
1
Step 296000
Ar 8.843344e-01 0.000000e+00 0.000000e+00
1
Step 297000
Ar 8.668073e-01 0.000000e+00 0.000000e+00
1
Step 298000
Ar 8.914506e-01 0.000000e+00 0.000000e+00
1
Step 299000
Ar 9.824360e-01 0.000000e+00 0.000000e+00
1
Step 300000
Ar 9.806377e-01 0.000000e+00 0.000000e+00
1
Step 301000
Ar 1.075388e+00 0.000000e+00 0.000000e+00
1
Step 302000
Ar 9.562575e-01 0.000000e+00 0.000000e+00
1
Step 303000
Ar 1.066361e+00 0.000000e+00 0.000000e+00
1
Step 304000
Ar 8.843177e-01 0.000000e+00 0.000000e+00
1
Step 305000
Ar 1.062942e+00 0.000000e+00 0.000000e+00
1
Step 306000
Ar 1.040315e+00 0.000000e+00 0.000000e+00
1
Step 307000
Ar 1.146597e+00 0.000000e+00 0.000000e+00
1
Step 308000
Ar 9.468460e-01 0.000000e+00 0.000000e+00
1
Step 309000
Ar 9.450321e-01 0.000000e+00 0.000000e+00
1
Step 310000
Ar 1.044726e+00 0.000000e+00 0.000000e+00
1
Step 311000
Ar 7.395433e-01 0.000000e+00 0.000000e+00
1
Step 312000
Ar 1.017416e+00 0.000000e+00 0.000000e+00
1
Step 313000
Ar 1.033262e+00 0.000000e+00 0.000000e+00
1
Step 314000
Ar 1.034969e+00 0.000000e+00 0.000000e+00
1
Step 315000
Ar 1.032924e+00 0.000000e+00 0.000000e+00
1
Step 316000
Ar 1.015900e+00 0.000000e+00 0.000000e+00
1
Step 317000
Ar 1.018188e+00 0.000000e+00 0.000000e+00
1
Step 318000
Ar 1.015674e+00 0.000000e+00 0.000000e+00
1
Step 319000
Ar 1.009669e+00 0.000000e+00 0.000000e+00
1
Step 320000
Ar 1.012099e+00 0.000000e+00 0.000000e+00
1
Step 321000
Ar 1.040473e+00 0.000000e+00 0.000000e+00
1
Step 322000
Ar 1.027901e+00 0.000000e+00 0.000000e+00
1
Step 323000
Ar 1.021741e+00 0.000000e+00 0.000000e+00
1
Step 324000
Ar 1.024016e+00 0.000000e+00 0.000000e+00
1
Step 325000
Ar 1.024849e+00 0.000000e+00 0.000000e+00
1
Step 326000
Ar 8.902644e-01 0.000000e+00 0.000000e+00
1
Step 327000
Ar 8.883580e-01 0.000000e+00 0.000000e+00
1
Step 328000
Ar 8.862512e-01 0.000000e+00 0.000000e+00
1
Step 329000
Ar 1.007786e+00 0.000000e+00 0.000000e+00
1
Step 330000
Ar 1.070895e+00 0.000000e+00 0.000000e+00
1
Step 331000
Ar 9.464190e-01 0.000000e+00 0.000000e+00
1
Step 332000
Ar 9.966932e-01 0.000000e+00 0.000000e+00
1
Step 333000
Ar 9.965828e-01 0.000000e+00 0.000000e+00
1
Step 334000
Ar 9.831565e-01 0.000000e+00 0.000000e+00
1
Step 335000
Ar 9.881790e-01 0.000000e+00 0.000000e+00
1
Step 336000
Ar 1.046124e+00 0.000000e+00 0.000000e+00
1
Step 337000
Ar 1.045644e+00 0.000000e+00 0.000000e+00
1
Step 338000
Ar 9.327762e-01 0.000000e+00 0.000000e+00
1
Step 339000
Ar 1.037656e+00 0.000000e+00 0.000000e+00
1
Step 340000
Ar 1.039151e+00 0.000000e+00 0.000000e+00
1
Step 341000
Ar 1.048432e+00 0.000000e+00 0.000000e+00
1
Step 342000
Ar 1.044709e+00 0.000000e+00 0.000000e+00
1
Step 343000
Ar 1.048653e+00 0.000000e+00 0.000000e+00
1
Step 344000
Ar 1.048502e+00 0.000000e+00 0.000000e+00
1
Step 345000
Ar 1.050018e+00 0.000000e+00 0.000000e+00
1
Step 346000
Ar 1.002241e+00 0.000000e+00 0.000000e+00
1
Step 347000
Ar 1.020852e+00 0.000000e+00 0.000000e+00
1
Step 348000
Ar 1.011788e+00 0.000000e+00 0.000000e+00
1
Step 349000
Ar 1.039485e+00 0.000000e+00 0.000000e+00
1
Step 350000
Ar 1.014858e+00 0.000000e+00 0.000000e+00
1
Step 351000
Ar 8.583791e-01 0.000000e+00 0.000000e+00
1
Step 352000
Ar 8.625302e-01 0.000000e+00 0.000000e+00
1
Step 353000
Ar 8.573833e-01 0.000000e+00 0.000000e+00
1
Step 354000
Ar 6.338083e-01 0.000000e+00 0.000000e+00
1
Step 355000
Ar 9.471742e-01 0.000000e+00 0.000000e+00
1
Step 356000
Ar 1.075146e+00 0.000000e+00 0.000000e+00
1
Step 357000
Ar 9.487730e-01 0.000000e+00 0.000000e+00
1
Step 358000
Ar 9.554436e-01 0.000000e+00 0.000000e+00
1
Step 359000
Ar 1.056646e+00 0.000000e+00 0.000000e+00
1
Step 360000
Ar 9.310653e-01 0.000000e+00 0.000000e+00
1
Step 361000
Ar 1.044686e+00 0.000000e+00 0.000000e+00
1
Step 362000
Ar 1.041773e+00 0.000000e+00 0.000000e+00
1
Step 363000
Ar 1.042498e+00 0.000000e+00 0.000000e+00
1
Step 364000
Ar 9.072003e-01 0.000000e+00 0.000000e+00
1
Step 365000
Ar 9.493423e-01 0.000000e+00 0.000000e+00
1
Step 366000
Ar 7.923639e-01 0.000000e+00 0.000000e+00
1
Step 367000
Ar 9.717469e-01 0.000000e+00 0.000000e+00
1
Step 368000
Ar 1.042186e+00 0.000000e+00 0.000000e+00
1
Step 369000
Ar 1.038298e+00 0.000000e+00 0.000000e+00
1
Step 370000
Ar 1.044480e+00 0.000000e+00 0.000000e+00
1
Step 371000
Ar 1.114067e+00 0.000000e+00 0.000000e+00
1
Step 372000
Ar 8.640586e-01 0.000000e+00 0.000000e+00
1
Step 373000
Ar 8.227402e-01 0.000000e+00 0.000000e+00
1
Step 374000
Ar 1.077655e+00 0.000000e+00 0.000000e+00
1
Step 375000
Ar 9.735612e-01 0.000000e+00 0.000000e+00
1
Step 376000
Ar 9.988074e-01 0.000000e+00 0.000000e+00
1
Step 377000
Ar 1.024749e+00 0.000000e+00 0.000000e+00
1
Step 378000
Ar 1.023023e+00 0.000000e+00 0.000000e+00
1
Step 379000
Ar 1.035875e+00 0.000000e+00 0.000000e+00
1
Step 380000
Ar 1.030951e+00 0.000000e+00 0.000000e+00
1
Step 381000
Ar 1.107597e+00 0.000000e+00 0.000000e+00
1
Step 382000
Ar 1.052065e+00 0.000000e+00 0.000000e+00
1
Step 383000
Ar 8.861870e-01 0.000000e+00 0.000000e+00
1
Step 384000
Ar 8.869257e-01 0.000000e+00 0.000000e+00
1
Step 385000
Ar 9.465746e-01 0.000000e+00 0.000000e+00
1
Step 386000
Ar 8.641445e-01 0.000000e+00 0.000000e+00
1
Step 387000
Ar 8.604791e-01 0.000000e+00 0.000000e+00
1
Step 388000
Ar 8.691420e-01 0.000000e+00 0.000000e+00
1
Step 389000
Ar 8.655428e-01 0.000000e+00 0.000000e+00
1
Step 390000
Ar 5.578716e-01 0.000000e+00 0.000000e+00
1
Step 391000
Ar 8.280077e-01 0.000000e+00 0.000000e+00
1
Step 392000
Ar 8.919149e-01 0.000000e+00 0.000000e+00
1
Step 393000
Ar 1.104343e+00 0.000000e+00 0.000000e+00
1
Step 394000
Ar 1.054391e+00 0.000000e+00 0.000000e+00
1
Step 395000
Ar 9.617349e-01 0.000000e+00 0.000000e+00
1
Step 396000
Ar 1.134903e+00 0.000000e+00 0.000000e+00
1
Step 397000
Ar 1.042072e+00 0.000000e+00 0.000000e+00
1
Step 398000
Ar 1.142622e+00 0.000000e+00 0.000000e+00
1
Step 399000
Ar 9.907302e-01 0.000000e+00 0.000000e+00
1
Step 400000
Ar 1.002147e+00 0.000000e+00 0.000000e+00
1
Step 401000
Ar 9.766627e-01 0.000000e+00 0.000000e+00
1
Step 402000
Ar 1.091301e+00 0.000000e+00 0.000000e+00
1
Step 403000
Ar 1.035787e+00 0.000000e+00 0.000000e+00
1
Step 404000
Ar 8.070653e-01 0.000000e+00 0.000000e+00
1
Step 405000
Ar 9.960917e-01 0.000000e+00 0.000000e+00
1
Step 406000
Ar 1.021957e+00 0.000000e+00 0.000000e+00
1
Step 407000
Ar 9.820905e-01 0.000000e+00 0.000000e+00
1
Step 408000
Ar 1.053442e+00 0.000000e+00 0.000000e+00
1
Step 409000
Ar 1.211434e+00 0.000000e+00 0.000000e+00
1
Step 410000
Ar 1.052517e+00 0.000000e+00 0.000000e+00
1
Step 411000
Ar 1.223826e+00 0.000000e+00 0.000000e+00
1
Step 412000
Ar 8.626139e-01 0.000000e+00 0.000000e+00
1
Step 413000
Ar 8.848690e-01 0.000000e+00 0.000000e+00
1
Step 414000
Ar 1.066479e+00 0.000000e+00 0.000000e+00
1
Step 415000
Ar 7.941340e-01 0.000000e+00 0.000000e+00
1
Step 416000
Ar 1.090777e+00 0.000000e+00 0.000000e+00
1
Step 417000
Ar 1.081855e+00 0.000000e+00 0.000000e+00
1
Step 418000
Ar 8.655009e-01 0.000000e+00 0.000000e+00
1
Step 419000
Ar 1.137564e+00 0.000000e+00 0.000000e+00
1
Step 420000
Ar 1.153963e+00 0.000000e+00 0.000000e+00
1
Step 421000
Ar 1.075298e+00 0.000000e+00 0.000000e+00
1
Step 422000
Ar 6.367707e-01 0.000000e+00 0.000000e+00
1
Step 423000
Ar 1.067276e+00 0.000000e+00 0.000000e+00
1
Step 424000
Ar 1.093663e+00 0.000000e+00 0.000000e+00
1
Step 425000
Ar 7.698897e-01 0.000000e+00 0.000000e+00
1
Step 426000
Ar 9.867520e-01 0.000000e+00 0.000000e+00
1
Step 427000
Ar 7.741766e-01 0.000000e+00 0.000000e+00
1
Step 428000
Ar 8.882726e-01 0.000000e+00 0.000000e+00
1
Step 429000
Ar 9.595678e-01 0.000000e+00 0.000000e+00
1
Step 430000
Ar 9.559095e-01 0.000000e+00 0.000000e+00
1
Step 431000
Ar 9.875878e-01 0.000000e+00 0.000000e+00
1
Step 432000
Ar 9.810118e-01 0.000000e+00 0.000000e+00
1
Step 433000
Ar 9.855680e-01 0.000000e+00 0.000000e+00
1
Step 434000
Ar 9.670619e-01 0.000000e+00 0.000000e+00
1
Step 435000
Ar 9.768638e-01 0.000000e+00 0.000000e+00
1
Step 436000
Ar 9.233411e-01 0.000000e+00 0.000000e+00
1
Step 437000
Ar 8.005762e-01 0.000000e+00 0.000000e+00
1
Step 438000
Ar 8.629726e-01 0.000000e+00 0.000000e+00
1
Step 439000
Ar 8.631327e-01 0.000000e+00 0.000000e+00
1
Step 440000
Ar 8.578020e-01 0.000000e+00 0.000000e+00
1
Step 441000
Ar 1.052278e+00 0.000000e+00 0.000000e+00
1
Step 442000
Ar 1.024654e+00 0.000000e+00 0.000000e+00
1
Step 443000
Ar 8.745293e-01 0.000000e+00 0.000000e+00
1
Step 444000
Ar 9.915282e-01 0.000000e+00 0.000000e+00
1
Step 445000
Ar 8.855181e-01 0.000000e+00 0.000000e+00
1
Step 446000
Ar 1.011900e+00 0.000000e+00 0.000000e+00
1
Step 447000
Ar 1.040547e+00 0.000000e+00 0.000000e+00
1
Step 448000
Ar 1.089813e+00 0.000000e+00 0.000000e+00
1
Step 449000
Ar 1.041880e+00 0.000000e+00 0.000000e+00
1
Step 450000
Ar 1.025710e+00 0.000000e+00 0.000000e+00
1
Step 451000
Ar 1.143262e+00 0.000000e+00 0.000000e+00
1
Step 452000
Ar 8.476199e-01 0.000000e+00 0.000000e+00
1
Step 453000
Ar 1.147561e+00 0.000000e+00 0.000000e+00
1
Step 454000
Ar 1.018573e+00 0.000000e+00 0.000000e+00
1
Step 455000
Ar 8.865255e-01 0.000000e+00 0.000000e+00
1
Step 456000
Ar 9.724146e-01 0.000000e+00 0.000000e+00
1
Step 457000
Ar 6.895978e-01 0.000000e+00 0.000000e+00
1
Step 458000
Ar 1.009460e+00 0.000000e+00 0.000000e+00
1
Step 459000
Ar 1.079897e+00 0.000000e+00 0.000000e+00
1
Step 460000
Ar 6.434192e-01 0.000000e+00 0.000000e+00
1
Step 461000
Ar 9.224100e-01 0.000000e+00 0.000000e+00
1
Step 462000
Ar 1.094433e+00 0.000000e+00 0.000000e+00
1
Step 463000
Ar 1.009318e+00 0.000000e+00 0.000000e+00
1
Step 464000
Ar 1.013471e+00 0.000000e+00 0.000000e+00
1
Step 465000
Ar 1.009492e+00 0.000000e+00 0.000000e+00
1
Step 466000
Ar 6.322543e-01 0.000000e+00 0.000000e+00
1
Step 467000
Ar 1.042931e+00 0.000000e+00 0.000000e+00
1
Step 468000
Ar 9.573299e-01 0.000000e+00 0.000000e+00
1
Step 469000
Ar 9.898737e-01 0.000000e+00 0.000000e+00
1
Step 470000
Ar 1.032479e+00 0.000000e+00 0.000000e+00
1
Step 471000
Ar 8.679796e-01 0.000000e+00 0.000000e+00
1
Step 472000
Ar 8.719008e-01 0.000000e+00 0.000000e+00
1
Step 473000
Ar 8.148935e-01 0.000000e+00 0.000000e+00
1
Step 474000
Ar 8.946843e-01 0.000000e+00 0.000000e+00
1
Step 475000
Ar 9.429187e-01 0.000000e+00 0.000000e+00
1
Step 476000
Ar 8.552754e-01 0.000000e+00 0.000000e+00
1
Step 477000
Ar 7.846142e-01 0.000000e+00 0.000000e+00
1
Step 478000
Ar 8.953568e-01 0.000000e+00 0.000000e+00
1
Step 479000
Ar 1.025215e+00 0.000000e+00 0.000000e+00
1
Step 480000
Ar 1.055693e+00 0.000000e+00 0.000000e+00
1
Step 481000
Ar 1.190415e+00 0.000000e+00 0.000000e+00
1
Step 482000
Ar 7.851856e-01 0.000000e+00 0.000000e+00
1
Step 483000
Ar 9.824891e-01 0.000000e+00 0.000000e+00
1
Step 484000
Ar 1.172231e+00 0.000000e+00 0.000000e+00
1
Step 485000
Ar 9.480900e-01 0.000000e+00 0.000000e+00
1
Step 486000
Ar 8.800045e-01 0.000000e+00 0.000000e+00
1
Step 487000
Ar 9.039039e-01 0.000000e+00 0.000000e+00
1
Step 488000
Ar 9.646951e-01 0.000000e+00 0.000000e+00
1
Step 489000
Ar 1.077380e+00 0.000000e+00 0.000000e+00
1
Step 490000
Ar 1.090079e+00 0.000000e+00 0.000000e+00
1
Step 491000
Ar 1.074401e+00 0.000000e+00 0.000000e+00
1
Step 492000
Ar 1.003349e+00 0.000000e+00 0.000000e+00
1
Step 493000
Ar 2.927248e-01 0.000000e+00 0.000000e+00
1
Step 494000
Ar 9.292977e-01 0.000000e+00 0.000000e+00
1
Step 495000
Ar 9.812469e-01 0.000000e+00 0.000000e+00
1
Step 496000
Ar -1.024662e+00 0.000000e+00 0.000000e+00
1
Step 497000
Ar -9.980531e-01 0.000000e+00 0.000000e+00
1
Step 498000
Ar -1.005735e+00 0.000000e+00 0.000000e+00
1
Step 499000
Ar -9.996452e-01 0.000000e+00 0.000000e+00
1
Step 500000
Ar -1.002229e+00 0.000000e+00 0.000000e+00
1
Step 501000
Ar -1.022319e+00 0.000000e+00 0.000000e+00
1
Step 502000
Ar -1.014480e+00 0.000000e+00 0.000000e+00
1
Step 503000
Ar -1.020626e+00 0.000000e+00 0.000000e+00
1
Step 504000
Ar -1.019316e+00 0.000000e+00 0.000000e+00
1
Step 505000
Ar -1.022462e+00 0.000000e+00 0.000000e+00
1
Step 506000
Ar -1.032193e+00 0.000000e+00 0.000000e+00
1
Step 507000
Ar -1.036392e+00 0.000000e+00 0.000000e+00
1
Step 508000
Ar -1.036335e+00 0.000000e+00 0.000000e+00
1
Step 509000
Ar -1.036233e+00 0.000000e+00 0.000000e+00
1
Step 510000
Ar -1.037013e+00 0.000000e+00 0.000000e+00
1
Step 511000
Ar -1.011480e+00 0.000000e+00 0.000000e+00
1
Step 512000
Ar -1.014566e+00 0.000000e+00 0.000000e+00
1
Step 513000
Ar -1.016611e+00 0.000000e+00 0.000000e+00
1
Step 514000
Ar -1.014618e+00 0.000000e+00 0.000000e+00
1
Step 515000
Ar -9.840183e-01 0.000000e+00 0.000000e+00
1
Step 516000
Ar -9.697456e-01 0.000000e+00 0.000000e+00
1
Step 517000
Ar -9.706410e-01 0.000000e+00 0.000000e+00
1
Step 518000
Ar -9.686206e-01 0.000000e+00 0.000000e+00
1
Step 519000
Ar -9.696455e-01 0.000000e+00 0.000000e+00
1
Step 520000
Ar -9.736460e-01 0.000000e+00 0.000000e+00
1
Step 521000
Ar -1.049268e+00 0.000000e+00 0.000000e+00
1
Step 522000
Ar -1.051653e+00 0.000000e+00 0.000000e+00
1
Step 523000
Ar -1.045455e+00 0.000000e+00 0.000000e+00
1
Step 524000
Ar -1.051013e+00 0.000000e+00 0.000000e+00
1
Step 525000
Ar -1.051530e+00 0.000000e+00 0.000000e+00
1
Step 526000
Ar -9.534481e-01 0.000000e+00 0.000000e+00
1
Step 527000
Ar -9.546502e-01 0.000000e+00 0.000000e+00
1
Step 528000
Ar -9.633346e-01 0.000000e+00 0.000000e+00
1
Step 529000
Ar -9.558771e-01 0.000000e+00 0.000000e+00
1
Step 530000
Ar -9.564290e-01 0.000000e+00 0.000000e+00
1
Step 531000
Ar -1.061113e+00 0.000000e+00 0.000000e+00
1
Step 532000
Ar -1.064652e+00 0.000000e+00 0.000000e+00
1
Step 533000
Ar -1.060792e+00 0.000000e+00 0.000000e+00
1
Step 534000
Ar -1.064210e+00 0.000000e+00 0.000000e+00
1
Step 535000
Ar -1.063206e+00 0.000000e+00 0.000000e+00
1
Step 536000
Ar -9.926182e-01 0.000000e+00 0.000000e+00
1
Step 537000
Ar -9.388400e-01 0.000000e+00 0.000000e+00
1
Step 538000
Ar -9.438851e-01 0.000000e+00 0.000000e+00
1
Step 539000
Ar -9.399242e-01 0.000000e+00 0.000000e+00
1
Step 540000
Ar -9.451046e-01 0.000000e+00 0.000000e+00
1
Step 541000
Ar -1.012066e+00 0.000000e+00 0.000000e+00
1
Step 542000
Ar -1.011998e+00 0.000000e+00 0.000000e+00
1
Step 543000
Ar -1.015656e+00 0.000000e+00 0.000000e+00
1
Step 544000
Ar -1.012382e+00 0.000000e+00 0.000000e+00
1
Step 545000
Ar -9.348487e-01 0.000000e+00 0.000000e+00
1
Step 546000
Ar -9.267966e-01 0.000000e+00 0.000000e+00
1
Step 547000
Ar -9.194731e-01 0.000000e+00 0.000000e+00
1
Step 548000
Ar -9.237517e-01 0.000000e+00 0.000000e+00
1
Step 549000
Ar -9.251186e-01 0.000000e+00 0.000000e+00
1
Step 550000
Ar -9.229902e-01 0.000000e+00 0.000000e+00
1
Step 551000
Ar -9.130315e-01 0.000000e+00 0.000000e+00
1
Step 552000
Ar -9.145523e-01 0.000000e+00 0.000000e+00
1
Step 553000
Ar -9.149610e-01 0.000000e+00 0.000000e+00
1
Step 554000
Ar -9.137603e-01 0.000000e+00 0.000000e+00
1
Step 555000
Ar -1.075984e+00 0.000000e+00 0.000000e+00
1
Step 556000
Ar -9.579836e-01 0.000000e+00 0.000000e+00
1
Step 557000
Ar -1.016881e+00 0.000000e+00 0.000000e+00
1
Step 558000
Ar -1.014066e+00 0.000000e+00 0.000000e+00
1
Step 559000
Ar -1.010302e+00 0.000000e+00 0.000000e+00
1
Step 560000
Ar -1.013222e+00 0.000000e+00 0.000000e+00
1
Step 561000
Ar -1.082068e+00 0.000000e+00 0.000000e+00
1
Step 562000
Ar -9.955151e-01 0.000000e+00 0.000000e+00
1
Step 563000
Ar -7.845407e-01 0.000000e+00 0.000000e+00
1
Step 564000
Ar -8.041607e-01 0.000000e+00 0.000000e+00
1
Step 565000
Ar -1.017722e+00 0.000000e+00 0.000000e+00
1
Step 566000
Ar -1.185210e+00 0.000000e+00 0.000000e+00
1
Step 567000
Ar -8.671798e-01 0.000000e+00 0.000000e+00
1
Step 568000
Ar -1.041984e+00 0.000000e+00 0.000000e+00
1
Step 569000
Ar -9.941300e-01 0.000000e+00 0.000000e+00
1
Step 570000
Ar -9.964172e-01 0.000000e+00 0.000000e+00
1
Step 571000
Ar -1.030892e+00 0.000000e+00 0.000000e+00
1
Step 572000
Ar -9.739835e-01 0.000000e+00 0.000000e+00
1
Step 573000
Ar -8.961070e-01 0.000000e+00 0.000000e+00
1
Step 574000
Ar -9.097500e-01 0.000000e+00 0.000000e+00
1
Step 575000
Ar -9.079322e-01 0.000000e+00 0.000000e+00
1
Step 576000
Ar -7.937880e-01 0.000000e+00 0.000000e+00
1
Step 577000
Ar -9.145139e-01 0.000000e+00 0.000000e+00
1
Step 578000
Ar -1.022450e+00 0.000000e+00 0.000000e+00
1
Step 579000
Ar -1.004107e+00 0.000000e+00 0.000000e+00
1
Step 580000
Ar -9.909836e-01 0.000000e+00 0.000000e+00
1
Step 581000
Ar -9.578024e-01 0.000000e+00 0.000000e+00
1
Step 582000
Ar -1.069001e+00 0.000000e+00 0.000000e+00
1
Step 583000
Ar -9.606393e-01 0.000000e+00 0.000000e+00
1
Step 584000
Ar -8.543686e-01 0.000000e+00 0.000000e+00
1
Step 585000
Ar -1.017045e+00 0.000000e+00 0.000000e+00
1
Step 586000
Ar -9.351049e-01 0.000000e+00 0.000000e+00
1
Step 587000
Ar -8.381285e-01 0.000000e+00 0.000000e+00
1
Step 588000
Ar -1.007363e+00 0.000000e+00 0.000000e+00
1
Step 589000
Ar -9.503052e-01 0.000000e+00 0.000000e+00
1
Step 590000
Ar -7.508747e-01 0.000000e+00 0.000000e+00
1
Step 591000
Ar -8.765539e-01 0.000000e+00 0.000000e+00
1
Step 592000
Ar -1.133248e+00 0.000000e+00 0.000000e+00
1
Step 593000
Ar -9.414510e-01 0.000000e+00 0.000000e+00
1
Step 594000
Ar -9.531489e-01 0.000000e+00 0.000000e+00
1
Step 595000
Ar -9.685721e-01 0.000000e+00 0.000000e+00
1
Step 596000
Ar -9.578560e-01 0.000000e+00 0.000000e+00
1
Step 597000
Ar -1.264365e+00 0.000000e+00 0.000000e+00
1
Step 598000
Ar -9.788163e-01 0.000000e+00 0.000000e+00
1
Step 599000
Ar -1.086878e+00 0.000000e+00 0.000000e+00
1
Step 600000
Ar -1.087208e+00 0.000000e+00 0.000000e+00
1
Step 601000
Ar -1.100297e+00 0.000000e+00 0.000000e+00
1
Step 602000
Ar -1.097301e+00 0.000000e+00 0.000000e+00
1
Step 603000
Ar -1.097015e+00 0.000000e+00 0.000000e+00
1
Step 604000
Ar -1.095563e+00 0.000000e+00 0.000000e+00
1
Step 605000
Ar -9.928131e-01 0.000000e+00 0.000000e+00
1
Step 606000
Ar -8.582678e-01 0.000000e+00 0.000000e+00
1
Step 607000
Ar -1.096889e+00 0.000000e+00 0.000000e+00
1
Step 608000
Ar -1.099786e+00 0.000000e+00 0.000000e+00
1
Step 609000
Ar -1.095934e+00 0.000000e+00 0.000000e+00
1
Step 610000
Ar -8.978432e-01 0.000000e+00 0.000000e+00
1
Step 611000
Ar -8.878320e-01 0.000000e+00 0.000000e+00
1
Step 612000
Ar -8.863963e-01 0.000000e+00 0.000000e+00
1
Step 613000
Ar -8.863141e-01 0.000000e+00 0.000000e+00
1
Step 614000
Ar -8.816014e-01 0.000000e+00 0.000000e+00
1
Step 615000
Ar -8.845873e-01 0.000000e+00 0.000000e+00
1
Step 616000
Ar -1.026573e+00 0.000000e+00 0.000000e+00
1
Step 617000
Ar -8.551963e-01 0.000000e+00 0.000000e+00
1
Step 618000
Ar -9.605082e-01 0.000000e+00 0.000000e+00
1
Step 619000
Ar -1.052645e+00 0.000000e+00 0.000000e+00
1
Step 620000
Ar -1.011298e+00 0.000000e+00 0.000000e+00
1
Step 621000
Ar -1.083627e+00 0.000000e+00 0.000000e+00
1
Step 622000
Ar -1.093576e+00 0.000000e+00 0.000000e+00
1
Step 623000
Ar -1.094077e+00 0.000000e+00 0.000000e+00
1
Step 624000
Ar -1.094420e+00 0.000000e+00 0.000000e+00
1
Step 625000
Ar -1.101273e+00 0.000000e+00 0.000000e+00
1
Step 626000
Ar -8.169400e-01 0.000000e+00 0.000000e+00
1
Step 627000
Ar -1.134593e+00 0.000000e+00 0.000000e+00
1
Step 628000
Ar -9.531020e-01 0.000000e+00 0.000000e+00
1
Step 629000
Ar -8.832716e-01 0.000000e+00 0.000000e+00
1
Step 630000
Ar -1.089062e+00 0.000000e+00 0.000000e+00
1
Step 631000
Ar -9.633290e-01 0.000000e+00 0.000000e+00
1
Step 632000
Ar -1.144765e+00 0.000000e+00 0.000000e+00
1
Step 633000
Ar -9.639416e-01 0.000000e+00 0.000000e+00
1
Step 634000
Ar -1.109450e+00 0.000000e+00 0.000000e+00
1
Step 635000
Ar -1.098803e+00 0.000000e+00 0.000000e+00
1
Step 636000
Ar -9.063074e-01 0.000000e+00 0.000000e+00
1
Step 637000
Ar -6.918011e-01 0.000000e+00 0.000000e+00
1
Step 638000
Ar -1.089767e+00 0.000000e+00 0.000000e+00
1
Step 639000
Ar -1.248786e+00 0.000000e+00 0.000000e+00
1
Step 640000
Ar -1.184967e+00 0.000000e+00 0.000000e+00
1
Step 641000
Ar -9.525301e-01 0.000000e+00 0.000000e+00
1
Step 642000
Ar -9.650038e-01 0.000000e+00 0.000000e+00
1
Step 643000
Ar -8.479568e-01 0.000000e+00 0.000000e+00
1
Step 644000
Ar -1.121370e+00 0.000000e+00 0.000000e+00
1
Step 645000
Ar -1.110814e+00 0.000000e+00 0.000000e+00
1
Step 646000
Ar -1.119956e+00 0.000000e+00 0.000000e+00
1
Step 647000
Ar -1.119691e+00 0.000000e+00 0.000000e+00
1
Step 648000
Ar -1.122745e+00 0.000000e+00 0.000000e+00
1
Step 649000
Ar -1.116531e+00 0.000000e+00 0.000000e+00
1
Step 650000
Ar -1.120326e+00 0.000000e+00 0.000000e+00
1
Step 651000
Ar -1.076651e+00 0.000000e+00 0.000000e+00
1
Step 652000