1
Step 120000
Ar 9.767715e-01 0.000000e+00 0.000000e+00
1
Step 121000
Ar 9.890823e-01 0.000000e+00 0.000000e+00
1
Step 122000
Ar 9.823247e-01 0.000000e+00 0.000000e+00
1
Step 123000
Ar 1.006789e+00 0.000000e+00 0.000000e+00
1
Step 124000
Ar 1.011077e+00 0.000000e+00 0.000000e+00
1
Step 125000
Ar 1.018049e+00 0.000000e+00 0.000000e+00
1
Step 126000
Ar 9.935185e-01 0.000000e+00 0.000000e+00
1
Step 127000
Ar 9.935751e-01 0.000000e+00 0.000000e+00
1
Step 128000
Ar 9.958065e-01 0.000000e+00 0.000000e+00
1
Step 129000
Ar 9.895171e-01 0.000000e+00 0.000000e+00
1
Step 130000
Ar 9.893057e-01 0.000000e+00 0.000000e+00
1
Step 131000
Ar 9.640415e-01 0.000000e+00 0.000000e+00
1
Step 132000
Ar 9.750252e-01 0.000000e+00 0.000000e+00
1
Step 133000
Ar 9.772563e-01 0.000000e+00 0.000000e+00
1
Step 134000
Ar 9.753435e-01 0.000000e+00 0.000000e+00
1
Step 135000
Ar 9.762111e-01 0.000000e+00 0.000000e+00
1
Step 136000
Ar 1.029789e+00 0.000000e+00 0.000000e+00
1
Step 137000
Ar 1.029829e+00 0.000000e+00 0.000000e+00
1
Step 138000
Ar 1.029892e+00 0.000000e+00 0.000000e+00
1
Step 139000
Ar 1.036009e+00 0.000000e+00 0.000000e+00
1
Step 140000
Ar 1.030996e+00 0.000000e+00 0.000000e+00
1
Step 141000
Ar 1.003377e+00 0.000000e+00 0.000000e+00
1
Step 142000
Ar 1.002927e+00 0.000000e+00 0.000000e+00
1
Step 143000
Ar 9.993737e-01 0.000000e+00 0.000000e+00
1
Step 144000
Ar 1.003649e+00 0.000000e+00 0.000000e+00
1
Step 145000
Ar 1.003583e+00 0.000000e+00 0.000000e+00
1
Step 146000
Ar 9.663246e-01 0.000000e+00 0.000000e+00
1
Step 147000
Ar 9.656839e-01 0.000000e+00 0.000000e+00
1
Step 148000
Ar 9.615249e-01 0.000000e+00 0.000000e+00
1
Step 149000
Ar 9.642289e-01 0.000000e+00 0.000000e+00
1
Step 150000
Ar 9.620938e-01 0.000000e+00 0.000000e+00
1
Step 151000
Ar 1.013141e+00 0.000000e+00 0.000000e+00
1
Step 152000
Ar 1.011001e+00 0.000000e+00 0.000000e+00
1
Step 153000
Ar 1.042447e+00 0.000000e+00 0.000000e+00
1
Step 154000
Ar 1.040980e+00 0.000000e+00 0.000000e+00
1
Step 155000
Ar 1.042985e+00 0.000000e+00 0.000000e+00
1
Step 156000
Ar 1.056231e+00 0.000000e+00 0.000000e+00
1
Step 157000
Ar 1.048427e+00 0.000000e+00 0.000000e+00
1
Step 158000
Ar 1.053565e+00 0.000000e+00 0.000000e+00
1
Step 159000
Ar 1.057546e+00 0.000000e+00 0.000000e+00
1
Step 160000
Ar 1.051964e+00 0.000000e+00 0.000000e+00
1
Step 161000
Ar 9.968007e-01 0.000000e+00 0.000000e+00
1
Step 162000
Ar 9.817402e-01 0.000000e+00 0.000000e+00
1
Step 163000
Ar 1.010257e+00 0.000000e+00 0.000000e+00
1
Step 164000
Ar 9.537742e-01 0.000000e+00 0.000000e+00
1
Step 165000
Ar 9.512108e-01 0.000000e+00 0.000000e+00
1
Step 166000
Ar 9.341428e-01 0.000000e+00 0.000000e+00
1
Step 167000
Ar 9.384639e-01 0.000000e+00 0.000000e+00
1
Step 168000
Ar 9.422242e-01 0.000000e+00 0.000000e+00
1
Step 169000
Ar 9.389194e-01 0.000000e+00 0.000000e+00
1
Step 170000
Ar 9.414745e-01 0.000000e+00 0.000000e+00
1
Step 171000
Ar 9.264286e-01 0.000000e+00 0.000000e+00
1
Step 172000
Ar 9.326340e-01 0.000000e+00 0.000000e+00
1
Step 173000
Ar 9.296022e-01 0.000000e+00 0.000000e+00
1
Step 174000
Ar 9.308426e-01 0.000000e+00 0.000000e+00
1
Step 175000
Ar 9.313753e-01 0.000000e+00 0.000000e+00
1
Step 176000
Ar 9.241158e-01 0.000000e+00 0.000000e+00
1
Step 177000
Ar 9.125339e-01 0.000000e+00 0.000000e+00
1
Step 178000
Ar 9.233092e-01 0.000000e+00 0.000000e+00
1
Step 179000
Ar 1.005970e+00 0.000000e+00 0.000000e+00
1
Step 180000
Ar 9.967248e-01 0.000000e+00 0.000000e+00
1
Step 181000
Ar 9.700362e-01 0.000000e+00 0.000000e+00
1
Step 182000
Ar 9.831560e-01 0.000000e+00 0.000000e+00
1
Step 183000
Ar 9.772539e-01 0.000000e+00 0.000000e+00
1
Step 184000
Ar 9.215941e-01 0.000000e+00 0.000000e+00
1
Step 185000
Ar 9.205416e-01 0.000000e+00 0.000000e+00
1
Step 186000
Ar 1.013419e+00 0.000000e+00 0.000000e+00
1
Step 187000
Ar 1.065917e+00 0.000000e+00 0.000000e+00
1
Step 188000
Ar 1.060586e+00 0.000000e+00 0.000000e+00
1
Step 189000
Ar 1.068810e+00 0.000000e+00 0.000000e+00
1
Step 190000
Ar 1.063863e+00 0.000000e+00 0.000000e+00
1
Step 191000
Ar 1.119849e+00 0.000000e+00 0.000000e+00
1
Step 192000
Ar 9.833998e-01 0.000000e+00 0.000000e+00
1
Step 193000
Ar 1.045235e+00 0.000000e+00 0.000000e+00
1
Step 194000
Ar 1.012884e+00 0.000000e+00 0.000000e+00
1
Step 195000
Ar 1.014966e+00 0.000000e+00 0.000000e+00
1
Step 196000
Ar 9.958655e-01 0.000000e+00 0.000000e+00
1
Step 197000
Ar 9.108293e-01 0.000000e+00 0.000000e+00
1
Step 198000
Ar 9.076116e-01 0.000000e+00 0.000000e+00
1
Step 199000
Ar 9.056560e-01 0.000000e+00 0.000000e+00
1
Step 200000
Ar 1.000262e+00 0.000000e+00 0.000000e+00
1
Step 201000
Ar 9.841428e-01 0.000000e+00 0.000000e+00
1
Step 202000
Ar 9.836436e-01 0.000000e+00 0.000000e+00
1
Step 203000
Ar 9.688228e-01 0.000000e+00 0.000000e+00
1
Step 204000
Ar 9.845625e-01 0.000000e+00 0.000000e+00
1
Step 205000
Ar 9.712945e-01 0.000000e+00 0.000000e+00
1
Step 206000
Ar 9.650224e-01 0.000000e+00 0.000000e+00
1
Step 207000
Ar 9.601056e-01 0.000000e+00 0.000000e+00
1
Step 208000
Ar 9.655165e-01 0.000000e+00 0.000000e+00
1
Step 209000
Ar 9.575158e-01 0.000000e+00 0.000000e+00
1
Step 210000
Ar 1.109351e+00 0.000000e+00 0.000000e+00
1
Step 211000
Ar 9.661557e-01 0.000000e+00 0.000000e+00
1
Step 212000
Ar 9.825869e-01 0.000000e+00 0.000000e+00
1
Step 213000
Ar 8.307712e-01 0.000000e+00 0.000000e+00
1
Step 214000
Ar 1.025352e+00 0.000000e+00 0.000000e+00
1
Step 215000
Ar 1.074792e+00 0.000000e+00 0.000000e+00
1
Step 216000
Ar 9.045829e-01 0.000000e+00 0.000000e+00
1
Step 217000
Ar 9.863996e-01 0.000000e+00 0.000000e+00
1
Step 218000
Ar 9.594428e-01 0.000000e+00 0.000000e+00
1
Step 219000
Ar 9.683145e-01 0.000000e+00 0.000000e+00
1
Step 220000
Ar 9.413958e-01 0.000000e+00 0.000000e+00
1
Step 221000
Ar 9.633014e-01 0.000000e+00 0.000000e+00
1
Step 222000
Ar 9.580376e-01 0.000000e+00 0.000000e+00
1
Step 223000
Ar 9.673804e-01 0.000000e+00 0.000000e+00
1
Step 224000
Ar 9.640453e-01 0.000000e+00 0.000000e+00
1
Step 225000
Ar 9.566642e-01 0.000000e+00 0.000000e+00
1
Step 226000
Ar 9.689905e-01 0.000000e+00 0.000000e+00
1
Step 227000
Ar 1.039882e+00 0.000000e+00 0.000000e+00
1
Step 228000
Ar 9.097561e-01 0.000000e+00 0.000000e+00
1
Step 229000
Ar 9.134984e-01 0.000000e+00 0.000000e+00
1
Step 230000
Ar 9.096138e-01 0.000000e+00 0.000000e+00
1
Step 231000
Ar 1.084285e+00 0.000000e+00 0.000000e+00
1
Step 232000
Ar 1.083958e+00 0.000000e+00 0.000000e+00
1
Step 233000
Ar 7.726758e-01 0.000000e+00 0.000000e+00
1
Step 234000
Ar 9.675166e-01 0.000000e+00 0.000000e+00
1
Step 235000
Ar 9.327666e-01 0.000000e+00 0.000000e+00
1
Step 236000
Ar 1.084752e+00 0.000000e+00 0.000000e+00
1
Step 237000
Ar 1.083462e+00 0.000000e+00 0.000000e+00
1
Step 238000
Ar 1.083396e+00 0.000000e+00 0.000000e+00
1
Step 239000
Ar 1.087665e+00 0.000000e+00 0.000000e+00
1
Step 240000
Ar 1.083704e+00 0.000000e+00 0.000000e+00
1
Step 241000
Ar 9.840800e-01 0.000000e+00 0.000000e+00
1
Step 242000
Ar 9.858493e-01 0.000000e+00 0.000000e+00
1
Step 243000
Ar 9.613825e-01 0.000000e+00 0.000000e+00
1
Step 244000
Ar 9.865799e-01 0.000000e+00 0.000000e+00
1
Step 245000
Ar 9.790954e-01 0.000000e+00 0.000000e+00
1
Step 246000
Ar 9.820113e-01 0.000000e+00 0.000000e+00
1
Step 247000
Ar 8.451597e-01 0.000000e+00 0.000000e+00
1
Step 248000
Ar 1.080424e+00 0.000000e+00 0.000000e+00
1
Step 249000
Ar 1.017679e+00 0.000000e+00 0.000000e+00
1
Step 250000
Ar 9.125678e-01 0.000000e+00 0.000000e+00
1
Step 251000
Ar 8.100912e-01 0.000000e+00 0.000000e+00
1
Step 252000
Ar 9.805058e-01 0.000000e+00 0.000000e+00
1
Step 253000
Ar 9.857987e-01 0.000000e+00 0.000000e+00
1
Step 254000
Ar 9.857747e-01 0.000000e+00 0.000000e+00
1
Step 255000
Ar 9.946342e-01 0.000000e+00 0.000000e+00
1
Step 256000
Ar 7.797894e-01 0.000000e+00 0.000000e+00
1
Step 257000
Ar 1.023197e+00 0.000000e+00 0.000000e+00
1
Step 258000
Ar 1.010690e+00 0.000000e+00 0.000000e+00
1
Step 259000
Ar 9.542034e-01 0.000000e+00 0.000000e+00
1
Step 260000
Ar 1.125045e+00 0.000000e+00 0.000000e+00
1
Step 261000
Ar 9.601110e-01 0.000000e+00 0.000000e+00
1
Step 262000
Ar 8.997107e-01 0.000000e+00 0.000000e+00
1
Step 263000
Ar 8.966289e-01 0.000000e+00 0.000000e+00
1
Step 264000
Ar 8.993087e-01 0.000000e+00 0.000000e+00
1
Step 265000
Ar 8.971815e-01 0.000000e+00 0.000000e+00
1
Step 266000
Ar 9.023267e-01 0.000000e+00 0.000000e+00
1
Step 267000
Ar 1.035221e+00 0.000000e+00 0.000000e+00
1
Step 268000
Ar 1.093719e+00 0.000000e+00 0.000000e+00
1
Step 269000
Ar 1.089678e+00 0.000000e+00 0.000000e+00
1
Step 270000
Ar 1.089517e+00 0.000000e+00 0.000000e+00
1
Step 271000
Ar 9.672974e-01 0.000000e+00 0.000000e+00
1
Step 272000
Ar 9.640172e-01 0.000000e+00 0.000000e+00
1
Step 273000
Ar 8.052498e-01 0.000000e+00 0.000000e+00
1
Step 274000
Ar 1.010730e+00 0.000000e+00 0.000000e+00
1
Step 275000
Ar 1.047173e+00 0.000000e+00 0.000000e+00
1
Step 276000
Ar 8.899727e-01 0.000000e+00 0.000000e+00
1
Step 277000
Ar 8.829406e-01 0.000000e+00 0.000000e+00
1
Step 278000
Ar 9.103342e-01 0.000000e+00 0.000000e+00
1
Step 279000
Ar 1.004060e+00 0.000000e+00 0.000000e+00
1
Step 280000
Ar 7.767211e-01 0.000000e+00 0.000000e+00
1
Step 281000
Ar 8.193054e-01 0.000000e+00 0.000000e+00
1
Step 282000
Ar 8.839387e-01 0.000000e+00 0.000000e+00
1
Step 283000
Ar 1.099656e+00 0.000000e+00 0.000000e+00
1
Step 284000
Ar 1.163321e+00 0.000000e+00 0.000000e+00
1
Step 285000
Ar 8.888170e-01 0.000000e+00 0.000000e+00
1
Step 286000
Ar 9.663909e-01 0.000000e+00 0.000000e+00
1
Step 287000
Ar 1.055558e+00 0.000000e+00 0.000000e+00
1
Step 288000
Ar 1.165231e+00 0.000000e+00 0.000000e+00
1
Step 289000
Ar 7.927433e-01 0.000000e+00 0.000000e+00
1
Step 290000
Ar 1.071287e+00 0.000000e+00 0.000000e+00
1
Step 291000
Ar 8.193667e-01 0.000000e+00 0.000000e+00
1
Step 292000
Ar 1.121105e+00 0.000000e+00 0.000000e+00
1
Step 293000
Ar 9.663801e-01 0.000000e+00 0.000000e+00
1
Step 294000
Ar 1.062624e+00 0.000000e+00 0.000000e+00
1
Step 295000
Ar 8.213359e-01 0.000000e+00 0.000000e+00
1
Step 296000
Ar 9.529038e-01 0.000000e+00 0.000000e+00
1
Step 297000
Ar 7.906524e-01 0.000000e+00 0.000000e+00
1
Step 298000
Ar 1.057704e+00 0.000000e+00 0.000000e+00
1
Step 299000
Ar 1.077634e+00 0.000000e+00 0.000000e+00
1
Step 300000
Ar 1.037894e+00 0.000000e+00 0.000000e+00
1
Step 301000
Ar 9.645440e-01 0.000000e+00 0.000000e+00
1
Step 302000
Ar 9.641013e-01 0.000000e+00 0.000000e+00
1
Step 303000
Ar 9.152132e-01 0.000000e+00 0.000000e+00
1
Step 304000
Ar 9.261809e-01 0.000000e+00 0.000000e+00
1
Step 305000
Ar 1.110252e+00 0.000000e+00 0.000000e+00
1
Step 306000
Ar 9.659481e-01 0.000000e+00 0.000000e+00
1
Step 307000
Ar 9.652041e-01 0.000000e+00 0.000000e+00
1
Step 308000
Ar 9.674648e-01 0.000000e+00 0.000000e+00
1
Step 309000
Ar 9.624724e-01 0.000000e+00 0.000000e+00
1
Step 310000
Ar 1.060855e+00 0.000000e+00 0.000000e+00
1
Step 311000
Ar 9.695550e-01 0.000000e+00 0.000000e+00
1
Step 312000
Ar 8.244030e-01 0.000000e+00 0.000000e+00
1
Step 313000
Ar 9.533898e-01 0.000000e+00 0.000000e+00
1
Step 314000
Ar 8.418825e-01 0.000000e+00 0.000000e+00
1
Step 315000
Ar 8.483511e-01 0.000000e+00 0.000000e+00
1
Step 316000
Ar 1.121786e+00 0.000000e+00 0.000000e+00
1
Step 317000
Ar 1.003482e+00 0.000000e+00 0.000000e+00
1
Step 318000
Ar 1.028948e+00 0.000000e+00 0.000000e+00
1
Step 319000
Ar 1.034584e+00 0.000000e+00 0.000000e+00
1
Step 320000
Ar 1.009132e+00 0.000000e+00 0.000000e+00
1
Step 321000
Ar 1.079890e+00 0.000000e+00 0.000000e+00
1
Step 322000
Ar 8.247804e-01 0.000000e+00 0.000000e+00
1
Step 323000
Ar 8.758886e-01 0.000000e+00 0.000000e+00
1
Step 324000
Ar 1.070838e+00 0.000000e+00 0.000000e+00
1
Step 325000
Ar 8.973629e-01 0.000000e+00 0.000000e+00
1
Step 326000
Ar 8.740668e-01 0.000000e+00 0.000000e+00
1
Step 327000
Ar 8.766125e-01 0.000000e+00 0.000000e+00
1
Step 328000
Ar 8.804970e-01 0.000000e+00 0.000000e+00
1
Step 329000
Ar 8.811743e-01 0.000000e+00 0.000000e+00
1
Step 330000
Ar 8.754907e-01 0.000000e+00 0.000000e+00
1
Step 331000
Ar 8.800786e-01 0.000000e+00 0.000000e+00
1
Step 332000
Ar 8.832686e-01 0.000000e+00 0.000000e+00
1
Step 333000
Ar 8.854705e-01 0.000000e+00 0.000000e+00
1
Step 334000
Ar 1.066471e+00 0.000000e+00 0.000000e+00
1
Step 335000
Ar 1.087959e+00 0.000000e+00 0.000000e+00
1
Step 336000
Ar 8.853526e-01 0.000000e+00 0.000000e+00
1
Step 337000
Ar 9.356510e-01 0.000000e+00 0.000000e+00
1
Step 338000
Ar 1.049221e+00 0.000000e+00 0.000000e+00
1
Step 339000
Ar 9.814524e-01 0.000000e+00 0.000000e+00
1
Step 340000
Ar 1.055360e+00 0.000000e+00 0.000000e+00
1
Step 341000
Ar 9.773500e-01 0.000000e+00 0.000000e+00
1
Step 342000
Ar 6.747501e-01 0.000000e+00 0.000000e+00
1
Step 343000
Ar 9.874905e-01 0.000000e+00 0.000000e+00
1
Step 344000
Ar 8.594436e-01 0.000000e+00 0.000000e+00
1
Step 345000
Ar 8.860515e-01 0.000000e+00 0.000000e+00
1
Step 346000
Ar 8.143431e-01 0.000000e+00 0.000000e+00
1
Step 347000
Ar 8.037232e-01 0.000000e+00 0.000000e+00
1
Step 348000
Ar 9.832129e-01 0.000000e+00 0.000000e+00
1
Step 349000
Ar 8.671743e-01 0.000000e+00 0.000000e+00
1
Step 350000
Ar 8.654718e-01 0.000000e+00 0.000000e+00
1
Step 351000
Ar 1.086859e+00 0.000000e+00 0.000000e+00
1
Step 352000
Ar 9.369408e-01 0.000000e+00 0.000000e+00
1
Step 353000
Ar 9.800637e-01 0.000000e+00 0.000000e+00
1
Step 354000
Ar 1.081461e+00 0.000000e+00 0.000000e+00
1
Step 355000
Ar 1.166694e+00 0.000000e+00 0.000000e+00
1
Step 356000
Ar 1.000463e+00 0.000000e+00 0.000000e+00
1
Step 357000
Ar 1.115295e+00 0.000000e+00 0.000000e+00
1
Step 358000
Ar 1.204713e+00 0.000000e+00 0.000000e+00
1
Step 359000
Ar 8.813995e-01 0.000000e+00 0.000000e+00
1
Step 360000
Ar 9.236474e-01 0.000000e+00 0.000000e+00
1
Step 361000
Ar 1.115494e+00 0.000000e+00 0.000000e+00
1
Step 362000
Ar 9.945101e-01 0.000000e+00 0.000000e+00
1
Step 363000
Ar 1.091135e+00 0.000000e+00 0.000000e+00
1
Step 364000
Ar 9.824157e-01 0.000000e+00 0.000000e+00
1
Step 365000
Ar 9.579273e-01 0.000000e+00 0.000000e+00
1
Step 366000
Ar 1.156179e+00 0.000000e+00 0.000000e+00
1
Step 367000
Ar 9.188031e-01 0.000000e+00 0.000000e+00
1
Step 368000
Ar 1.102399e+00 0.000000e+00 0.000000e+00
1
Step 369000
Ar 7.544097e-01 0.000000e+00 0.000000e+00
1
Step 370000
Ar 9.723444e-01 0.000000e+00 0.000000e+00
1
Step 371000
Ar 9.391051e-01 0.000000e+00 0.000000e+00
1
Step 372000
Ar 6.314163e-01 0.000000e+00 0.000000e+00
1
Step 373000
Ar 9.609437e-01 0.000000e+00 0.000000e+00
1
Step 374000
Ar 9.251735e-01 0.000000e+00 0.000000e+00
1
Step 375000
Ar 8.823041e-01 0.000000e+00 0.000000e+00
1
Step 376000
Ar 9.050998e-01 0.000000e+00 0.000000e+00
1
Step 377000
Ar 8.756681e-01 0.000000e+00 0.000000e+00
1
Step 378000
Ar 8.858657e-01 0.000000e+00 0.000000e+00
1
Step 379000
Ar 8.647507e-01 0.000000e+00 0.000000e+00
1
Step 380000
Ar 8.741700e-01 0.000000e+00 0.000000e+00
1
Step 381000
Ar 7.933628e-01 0.000000e+00 0.000000e+00
1
Step 382000
Ar 9.230006e-01 0.000000e+00 0.000000e+00
1
Step 383000
Ar 8.835248e-01 0.000000e+00 0.000000e+00
1
Step 384000
Ar 8.522050e-01 0.000000e+00 0.000000e+00
1
Step 385000
Ar 1.049118e+00 0.000000e+00 0.000000e+00
1
Step 386000
Ar 1.005894e+00 0.000000e+00 0.000000e+00
1
Step 387000
Ar 1.062071e+00 0.000000e+00 0.000000e+00
1
Step 388000
Ar 1.070290e+00 0.000000e+00 0.000000e+00
1
Step 389000
Ar 1.067606e+00 0.000000e+00 0.000000e+00
1
Step 390000
Ar 1.064818e+00 0.000000e+00 0.000000e+00
1
Step 391000
Ar 1.025217e+00 0.000000e+00 0.000000e+00
1
Step 392000
Ar 8.373979e-01 0.000000e+00 0.000000e+00
1
Step 393000
Ar 1.102788e+00 0.000000e+00 0.000000e+00
1
Step 394000
Ar 1.116658e+00 0.000000e+00 0.000000e+00
1
Step 395000
Ar 8.245597e-01 0.000000e+00 0.000000e+00
1
Step 396000
Ar 9.734372e-01 0.000000e+00 0.000000e+00
1
Step 397000
Ar 1.174735e+00 0.000000e+00 0.000000e+00
1
Step 398000
Ar 9.425246e-01 0.000000e+00 0.000000e+00
1
Step 399000
Ar 1.033436e+00 0.000000e+00 0.000000e+00
1
Step 400000
Ar 1.023512e+00 0.000000e+00 0.000000e+00
1
Step 401000
Ar 1.043330e+00 0.000000e+00 0.000000e+00
1
Step 402000
Ar 1.031796e+00 0.000000e+00 0.000000e+00
1
Step 403000
Ar 1.027836e+00 0.000000e+00 0.000000e+00
1
Step 404000
Ar 1.030248e+00 0.000000e+00 0.000000e+00
1
Step 405000
Ar 1.025367e+00 0.000000e+00 0.000000e+00
1
Step 406000
Ar 1.032672e+00 0.000000e+00 0.000000e+00
1
Step 407000
Ar 1.032782e+00 0.000000e+00 0.000000e+00
1
Step 408000
Ar 1.030592e+00 0.000000e+00 0.000000e+00
1
Step 409000
Ar 1.034640e+00 0.000000e+00 0.000000e+00
1
Step 410000
Ar 1.034887e+00 0.000000e+00 0.000000e+00
1
Step 411000
Ar 9.320910e-01 0.000000e+00 0.000000e+00
1
Step 412000
Ar 1.008868e+00 0.000000e+00 0.000000e+00
1
Step 413000
Ar 1.010776e+00 0.000000e+00 0.000000e+00
1
Step 414000
Ar 1.008715e+00 0.000000e+00 0.000000e+00
1
Step 415000
Ar 1.010989e+00 0.000000e+00 0.000000e+00
1
Step 416000
Ar 1.054142e+00 0.000000e+00 0.000000e+00
1
Step 417000
Ar 1.097322e+00 0.000000e+00 0.000000e+00
1
Step 418000
Ar 8.900806e-01 0.000000e+00 0.000000e+00
1
Step 419000
Ar 8.640258e-01 0.000000e+00 0.000000e+00
1
Step 420000
Ar 1.081310e+00 0.000000e+00 0.000000e+00
1
Step 421000
Ar 9.424057e-01 0.000000e+00 0.000000e+00
1
Step 422000
Ar 1.023288e+00 0.000000e+00 0.000000e+00
1
Step 423000
Ar 9.807194e-01 0.000000e+00 0.000000e+00
1
Step 424000
Ar 9.864952e-01 0.000000e+00 0.000000e+00
1
Step 425000
Ar 9.739118e-01 0.000000e+00 0.000000e+00
1
Step 426000
Ar 9.172311e-01 0.000000e+00 0.000000e+00
1
Step 427000
Ar 8.568429e-01 0.000000e+00 0.000000e+00
1
Step 428000
Ar 1.063892e+00 0.000000e+00 0.000000e+00
1
Step 429000
Ar 1.017773e+00 0.000000e+00 0.000000e+00
1
Step 430000
Ar 8.609665e-01 0.000000e+00 0.000000e+00
1
Step 431000
Ar 1.164424e+00 0.000000e+00 0.000000e+00
1
Step 432000
Ar 1.180331e+00 0.000000e+00 0.000000e+00
1
Step 433000
Ar 8.515453e-01 0.000000e+00 0.000000e+00
1
Step 434000
Ar 8.421832e-01 0.000000e+00 0.000000e+00
1
Step 435000
Ar -9.934418e-01 0.000000e+00 0.000000e+00
1
Step 436000
Ar -9.760427e-01 0.000000e+00 0.000000e+00
1
Step 437000
Ar -9.779702e-01 0.000000e+00 0.000000e+00
1
Step 438000
Ar -9.818272e-01 0.000000e+00 0.000000e+00
1
Step 439000
Ar -9.834318e-01 0.000000e+00 0.000000e+00
1
Step 440000
Ar -9.836539e-01 0.000000e+00 0.000000e+00
1
Step 441000
Ar -9.716936e-01 0.000000e+00 0.000000e+00
1
Step 442000
Ar -9.699947e-01 0.000000e+00 0.000000e+00
1
Step 443000
Ar -9.722510e-01 0.000000e+00 0.000000e+00
1
Step 444000
Ar -9.718841e-01 0.000000e+00 0.000000e+00
1
Step 445000
Ar -9.669836e-01 0.000000e+00 0.000000e+00
1
Step 446000
Ar -1.018349e+00 0.000000e+00 0.000000e+00
1
Step 447000
Ar -1.018398e+00 0.000000e+00 0.000000e+00
1
Step 448000
Ar -1.011532e+00 0.000000e+00 0.000000e+00
1
Step 449000
Ar -1.018061e+00 0.000000e+00 0.000000e+00
1
Step 450000
Ar -1.017444e+00 0.000000e+00 0.000000e+00
1
Step 451000
Ar -1.004327e+00 0.000000e+00 0.000000e+00
1
Step 452000
Ar -1.009766e+00 0.000000e+00 0.000000e+00
1
Step 453000
Ar -1.004384e+00 0.000000e+00 0.000000e+00
1
Step 454000
Ar -1.006139e+00 0.000000e+00 0.000000e+00
1
Step 455000
Ar -1.004251e+00 0.000000e+00 0.000000e+00
1
Step 456000
Ar -1.029282e+00 0.000000e+00 0.000000e+00
1
Step 457000
Ar -1.031310e+00 0.000000e+00 0.000000e+00
1
Step 458000
Ar -1.037965e+00 0.000000e+00 0.000000e+00
1
Step 459000
Ar -1.027057e+00 0.000000e+00 0.000000e+00
1
Step 460000
Ar -1.028494e+00 0.000000e+00 0.000000e+00
1
Step 461000
Ar -1.050938e+00 0.000000e+00 0.000000e+00
1
Step 462000
Ar -1.040848e+00 0.000000e+00 0.000000e+00
1
Step 463000
Ar -1.036581e+00 0.000000e+00 0.000000e+00
1
Step 464000
Ar -1.040691e+00 0.000000e+00 0.000000e+00
1
Step 465000
Ar -1.040481e+00 0.000000e+00 0.000000e+00
1
Step 466000
Ar -1.004476e+00 0.000000e+00 0.000000e+00
1
Step 467000
Ar -1.053312e+00 0.000000e+00 0.000000e+00
1
Step 468000
Ar -1.054883e+00 0.000000e+00 0.000000e+00
1
Step 469000
Ar -1.050584e+00 0.000000e+00 0.000000e+00
1
Step 470000
Ar -1.053742e+00 0.000000e+00 0.000000e+00
1
Step 471000
Ar -9.611556e-01 0.000000e+00 0.000000e+00
1
Step 472000
Ar -9.576310e-01 0.000000e+00 0.000000e+00
1
Step 473000
Ar -9.535169e-01 0.000000e+00 0.000000e+00
1
Step 474000
Ar -9.567493e-01 0.000000e+00 0.000000e+00
1
Step 475000
Ar -9.535359e-01 0.000000e+00 0.000000e+00
1
Step 476000
Ar -9.755551e-01 0.000000e+00 0.000000e+00
1
Step 477000
Ar -9.446767e-01 0.000000e+00 0.000000e+00
1
Step 478000
Ar -9.396868e-01 0.000000e+00 0.000000e+00
1
Step 479000
Ar -9.402990e-01 0.000000e+00 0.000000e+00
1
Step 480000
Ar -9.381318e-01 0.000000e+00 0.000000e+00
1
Step 481000
Ar -1.008487e+00 0.000000e+00 0.000000e+00
1
Step 482000
Ar -1.004792e+00 0.000000e+00 0.000000e+00
1
Step 483000
Ar -1.063918e+00 0.000000e+00 0.000000e+00
1
Step 484000
Ar -1.067800e+00 0.000000e+00 0.000000e+00
1
Step 485000
Ar -1.069716e+00 0.000000e+00 0.000000e+00
1
Step 486000
Ar -1.079959e+00 0.000000e+00 0.000000e+00
1
Step 487000
Ar -9.539973e-01 0.000000e+00 0.000000e+00
1
Step 488000
Ar -1.009980e+00 0.000000e+00 0.000000e+00
1
Step 489000
Ar -1.013529e+00 0.000000e+00 0.000000e+00
1
Step 490000
Ar -1.004997e+00 0.000000e+00 0.000000e+00
1
Step 491000
Ar -1.032194e+00 0.000000e+00 0.000000e+00
1
Step 492000
Ar -1.023771e+00 0.000000e+00 0.000000e+00
1
Step 493000
Ar -1.016747e+00 0.000000e+00 0.000000e+00
1
Step 494000
Ar -1.022857e+00 0.000000e+00 0.000000e+00
1
Step 495000
Ar -1.013179e+00 0.000000e+00 0.000000e+00
1
Step 496000
Ar -9.743050e-01 0.000000e+00 0.000000e+00
1
Step 497000
Ar -9.762828e-01 0.000000e+00 0.000000e+00
1
Step 498000
Ar -9.766599e-01 0.000000e+00 0.000000e+00
1
Step 499000
Ar -9.730633e-01 0.000000e+00 0.000000e+00
1
Step 500000
Ar -9.706382e-01 0.000000e+00 0.000000e+00
1
Step 501000
Ar -9.852720e-01 0.000000e+00 0.000000e+00
1
Step 502000
Ar -9.269984e-01 0.000000e+00 0.000000e+00
1
Step 503000
Ar -9.280373e-01 0.000000e+00 0.000000e+00
1
Step 504000
Ar -9.244926e-01 0.000000e+00 0.000000e+00
1
Step 505000
Ar -9.275603e-01 0.000000e+00 0.000000e+00
1
Step 506000
Ar -1.077727e+00 0.000000e+00 0.000000e+00
1
Step 507000
Ar -1.079666e+00 0.000000e+00 0.000000e+00
1
Step 508000
Ar -8.824208e-01 0.000000e+00 0.000000e+00
1
Step 509000
Ar -9.824038e-01 0.000000e+00 0.000000e+00
1
Step 510000
Ar -9.475542e-01 0.000000e+00 0.000000e+00
1
Step 511000
Ar -9.901063e-01 0.000000e+00 0.000000e+00
1
Step 512000
Ar -1.039383e+00 0.000000e+00 0.000000e+00
1
Step 513000
Ar -1.033167e+00 0.000000e+00 0.000000e+00
1
Step 514000
Ar -1.035662e+00 0.000000e+00 0.000000e+00
1
Step 515000
Ar -1.024600e+00 0.000000e+00 0.000000e+00
1
Step 516000
Ar -1.039525e+00 0.000000e+00 0.000000e+00
1
Step 517000
Ar -1.037080e+00 0.000000e+00 0.000000e+00
1
Step 518000
Ar -1.043727e+00 0.000000e+00 0.000000e+00
1
Step 519000
Ar -1.045288e+00 0.000000e+00 0.000000e+00
1
Step 520000
Ar -9.165108e-01 0.000000e+00 0.000000e+00
1
Step 521000
Ar -1.081546e+00 0.000000e+00 0.000000e+00
1
Step 522000
Ar -1.045073e+00 0.000000e+00 0.000000e+00
1
Step 523000
Ar -1.039757e+00 0.000000e+00 0.000000e+00
1
Step 524000
Ar -9.433612e-01 0.000000e+00 0.000000e+00
1
Step 525000
Ar -9.967145e-01 0.000000e+00 0.000000e+00
1
Step 526000
Ar -1.135318e+00 0.000000e+00 0.000000e+00
1
Step 527000
Ar -1.052759e+00 0.000000e+00 0.000000e+00
1
Step 528000
Ar -1.037878e+00 0.000000e+00 0.000000e+00
1
Step 529000
Ar -9.374404e-01 0.000000e+00 0.000000e+00
1
Step 530000
Ar -1.037960e+00 0.000000e+00 0.000000e+00
1
Step 531000
Ar -1.082900e+00 0.000000e+00 0.000000e+00
1
Step 532000
Ar -1.078116e+00 0.000000e+00 0.000000e+00
1
Step 533000
Ar -1.070484e+00 0.000000e+00 0.000000e+00
1
Step 534000
Ar -1.035026e+00 0.000000e+00 0.000000e+00
1
Step 535000
Ar -1.057884e+00 0.000000e+00 0.000000e+00
1
Step 536000
Ar -9.071302e-01 0.000000e+00 0.000000e+00
1
Step 537000
Ar -9.111629e-01 0.000000e+00 0.000000e+00
1
Step 538000
Ar -9.038025e-01 0.000000e+00 0.000000e+00
1
Step 539000
Ar -9.053822e-01 0.000000e+00 0.000000e+00
1
Step 540000
Ar -9.095101e-01 0.000000e+00 0.000000e+00
1
Step 541000
Ar -8.960826e-01 0.000000e+00 0.000000e+00
1
Step 542000
Ar -8.964079e-01 0.000000e+00 0.000000e+00
1
Step 543000
Ar -8.963356e-01 0.000000e+00 0.000000e+00
1
Step 544000
Ar -9.010941e-01 0.000000e+00 0.000000e+00
1
Step 545000
Ar -8.991205e-01 0.000000e+00 0.000000e+00
1
Step 546000
Ar -8.899301e-01 0.000000e+00 0.000000e+00
1
Step 547000
Ar -8.865677e-01 0.000000e+00 0.000000e+00
1
Step 548000
Ar -1.017323e+00 0.000000e+00 0.000000e+00
1
Step 549000
Ar -8.435677e-01 0.000000e+00 0.000000e+00
1
Step 550000
Ar -1.084125e+00 0.000000e+00 0.000000e+00
1
Step 551000
Ar -1.021322e+00 0.000000e+00 0.000000e+00
1
Step 552000
Ar -1.084491e+00 0.000000e+00 0.000000e+00
1
Step 553000
Ar -1.021032e+00 0.000000e+00 0.000000e+00
1
Step 554000
Ar -1.028450e+00 0.000000e+00 0.000000e+00
1
Step 555000
Ar -1.076147e+00 0.000000e+00 0.000000e+00
1
Step 556000
Ar -1.022790e+00 0.000000e+00 0.000000e+00
1
Step 557000
Ar -9.563390e-01 0.000000e+00 0.000000e+00
1
Step 558000
Ar -9.357138e-01 0.000000e+00 0.000000e+00
1
Step 559000
Ar -1.096277e+00 0.000000e+00 0.000000e+00
1
Step 560000
Ar -1.103742e+00 0.000000e+00 0.000000e+00
1
Step 561000
Ar -9.831956e-01 0.000000e+00 0.000000e+00
1
Step 562000
Ar -1.188756e+00 0.000000e+00 0.000000e+00
1
Step 563000
Ar -1.107496e+00 0.000000e+00 0.000000e+00
1
Step 564000
Ar -9.972626e-01 0.000000e+00 0.000000e+00
1
Step 565000
Ar -9.911152e-01 0.000000e+00 0.000000e+00
1
Step 566000
Ar -9.774608e-01 0.000000e+00 0.000000e+00
1
Step 567000
Ar -8.311630e-01 0.000000e+00 0.000000e+00
1
Step 568000
Ar -8.902144e-01 0.000000e+00 0.000000e+00
1
Step 569000
Ar -9.589282e-01 0.000000e+00 0.000000e+00
1
Step 570000
Ar -9.455650e-01 0.000000e+00 0.000000e+00
1
Step 571000
Ar -9.451961e-01 0.000000e+00 0.000000e+00
1
Step 572000
Ar -1.017070e+00 0.000000e+00 0.000000e+00
1
Step 573000
Ar -1.033716e+00 0.000000e+00 0.000000e+00
1
Step 574000
Ar -1.033448e+00 0.000000e+00 0.000000e+00
1
Step 575000
Ar -1.033452e+00 0.000000e+00 0.000000e+00
1
Step 576000
Ar -9.125308e-01 0.000000e+00 0.000000e+00
1
Step 577000
Ar -9.892308e-01 0.000000e+00 0.000000e+00
1
Step 578000
Ar -1.146419e+00 0.000000e+00 0.000000e+00
1
Step 579000
Ar -8.501309e-01 0.000000e+00 0.000000e+00
1
Step 580000
Ar -1.185472e+00 0.000000e+00 0.000000e+00
1
Step 581000
Ar -6.938680e-01 0.000000e+00 0.000000e+00
1
Step 582000
Ar -1.021158e+00 0.000000e+00 0.000000e+00
1
Step 583000
Ar -1.005877e+00 0.000000e+00 0.000000e+00
1
Step 584000
Ar -1.020932e+00 0.000000e+00 0.000000e+00
1
Step 585000
Ar -1.012880e+00 0.000000e+00 0.000000e+00
1
Step 586000
Ar -1.019331e+00 0.000000e+00 0.000000e+00
1
Step 587000
Ar -8.865525e-01 0.000000e+00 0.000000e+00
1
Step 588000
Ar -1.101443e+00 0.000000e+00 0.000000e+00
1
Step 589000
Ar -8.925944e-01 0.000000e+00 0.000000e+00
1
Step 590000
Ar -9.981385e-01 0.000000e+00 0.000000e+00
1
Step 591000
Ar -1.034026e+00 0.000000e+00 0.000000e+00
1
Step 592000
Ar -8.166299e-01 0.000000e+00 0.000000e+00
1
Step 593000
Ar -9.263103e-01 0.000000e+00 0.000000e+00
1
Step 594000
Ar -9.308498e-01 0.000000e+00 0.000000e+00
1
Step 595000
Ar -9.288926e-01 0.000000e+00 0.000000e+00
1
Step 596000
Ar -1.046189e+00 0.000000e+00 0.000000e+00
1
Step 597000
Ar -9.806740e-01 0.000000e+00 0.000000e+00
1
Step 598000
Ar -9.394704e-01 0.000000e+00 0.000000e+00
1
Step 599000
Ar -1.012741e+00 0.000000e+00 0.000000e+00
1
Step 600000
Ar -8.365289e-01 0.000000e+00 0.000000e+00
1
Step 601000
Ar -8.431880e-01 0.000000e+00 0.000000e+00
1
Step 602000
Ar -9.778665e-01 0.000000e+00 0.000000e+00
1
Step 603000
Ar -9.907216e-01 0.000000e+00 0.000000e+00
1
Step 604000
Ar -1.020625e+00 0.000000e+00 0.000000e+00
1
Step 605000
Ar -1.045272e+00 0.000000e+00 0.000000e+00
1
Step 606000
Ar -9.609199e-01 0.000000e+00 0.000000e+00
1
Step 607000
Ar -1.026048e+00 0.000000e+00 0.000000e+00
1
Step 608000
Ar -1.022446e+00 0.000000e+00 0.000000e+00
1
Step 609000
Ar -1.021982e+00 0.000000e+00 0.000000e+00
1
Step 610000
Ar -9.635456e-01 0.000000e+00 0.000000e+00
1
Step 611000
Ar -7.794169e-01 0.000000e+00 0.000000e+00
1
Step 612000
Ar -9.750502e-01 0.000000e+00 0.000000e+00
1
Step 613000
Ar -9.783230e-01 0.000000e+00 0.000000e+00
1
Step 614000
Ar -1.087104e+00 0.000000e+00 0.000000e+00
1
Step 615000
Ar -8.391171e-01 0.000000e+00 0.000000e+00
1
Step 616000
Ar -1.023755e+00 0.000000e+00 0.000000e+00
1
Step 617000
Ar -1.022536e+00 0.000000e+00 0.000000e+00
1
Step 618000
Ar -1.062303e+00 0.000000e+00 0.000000e+00
1
Step 619000
Ar -8.208538e-01 0.000000e+00 0.000000e+00
1
Step 620000
Ar -8.268263e-01 0.000000e+00 0.000000e+00
1
Step 621000
Ar -1.009206e+00 0.000000e+00 0.000000e+00
1
Step 622000
Ar -1.060415e+00 0.000000e+00 0.000000e+00
1
Step 623000
Ar -1.020043e+00 0.000000e+00 0.000000e+00
1
Step 624000
Ar -1.051379e+00 0.000000e+00 0.000000e+00
1
Step 625000
Ar -8.457151e-01 0.000000e+00 0.000000e+00
1
Step 626000
Ar -8.190393e-01 0.000000e+00 0.000000e+00
1
Step 627000
Ar -8.300540e-01 0.000000e+00 0.000000e+00
1
Step 628000
Ar -9.761530e-01 0.000000e+00 0.000000e+00
1
Step 629000
Ar -9.799447e-01 0.000000e+00 0.000000e+00
1
Step 630000
Ar -1.019570e+00 0.000000e+00 0.000000e+00
1
Step 631000
Ar -9.387411e-01 0.000000e+00 0.000000e+00
1
Step 632000
Ar -9.377369e-01 0.000000e+00 0.000000e+00
1
Step 633000
Ar -1.032848e+00 0.000000e+00 0.000000e+00
1
Step 634000
Ar -1.027198e+00 0.000000e+00 0.000000e+00
1
Step 635000
Ar -1.032368e+00 0.000000e+00 0.000000e+00
1
Step 636000
Ar -1.003010e+00 0.000000e+00 0.000000e+00
1
Step 637000
Ar -1.005490e+00 0.000000e+00 0.000000e+00
1
Step 638000
Ar -1.006975e+00 0.000000e+00 0.000000e+00
1
Step 639000
Ar -1.001944e+00 0.000000e+00 0.000000e+00
1
Step 640000
Ar -1.022675e+00 0.000000e+00 0.000000e+00
1
Step 641000
Ar -8.881235e-01 0.000000e+00 0.000000e+00
1
Step 642000
Ar -8.881708e-01 0.000000e+00 0.000000e+00
1
Step 643000
Ar -9.585929e-01 0.000000e+00 0.000000e+00
1
Step 644000
Ar -9.807794e-01 0.000000e+00 0.000000e+00
1
Step 645000
Ar -9.793012e-01 0.000000e+00 0.000000e+00
1
Step 646000
Ar -9.608863e-01 0.000000e+00 0.000000e+00
1
Step 647000
Ar -9.327071e-01 0.000000e+00 0.000000e+00
1
Step 648000
Ar -1.062786e+00 0.000000e+00 0.000000e+00
1
Step 649000
Ar -9.853483e-01 0.000000e+00 0.000000e+00
1
Step 650000
Ar -8.157773e-01 0.000000e+00 0.000000e+00
1
Step 651000