1
Step 120000
Ar 9.790847e-01 0.000000e+00 0.000000e+00
1
Step 121000
Ar 9.919047e-01 0.000000e+00 0.000000e+00
1
Step 122000
Ar 9.960173e-01 0.000000e+00 0.000000e+00
1
Step 123000
Ar 9.903461e-01 0.000000e+00 0.000000e+00
1
Step 124000
Ar 1.002266e+00 0.000000e+00 0.000000e+00
1
Step 125000
Ar 1.011523e+00 0.000000e+00 0.000000e+00
1
Step 126000
Ar 1.027893e+00 0.000000e+00 0.000000e+00
1
Step 127000
Ar 1.031877e+00 0.000000e+00 0.000000e+00
1
Step 128000
Ar 1.030648e+00 0.000000e+00 0.000000e+00
1
Step 129000
Ar 1.026514e+00 0.000000e+00 0.000000e+00
1
Step 130000
Ar 1.021803e+00 0.000000e+00 0.000000e+00
1
Step 131000
Ar 1.028580e+00 0.000000e+00 0.000000e+00
1
Step 132000
Ar 1.038548e+00 0.000000e+00 0.000000e+00
1
Step 133000
Ar 1.032570e+00 0.000000e+00 0.000000e+00
1
Step 134000
Ar 1.036968e+00 0.000000e+00 0.000000e+00
1
Step 135000
Ar 1.038438e+00 0.000000e+00 0.000000e+00
1
Step 136000
Ar 1.050068e+00 0.000000e+00 0.000000e+00
1
Step 137000
Ar 1.048616e+00 0.000000e+00 0.000000e+00
1
Step 138000
Ar 1.051178e+00 0.000000e+00 0.000000e+00
1
Step 139000
Ar 1.049973e+00 0.000000e+00 0.000000e+00
1
Step 140000
Ar 1.054254e+00 0.000000e+00 0.000000e+00
1
Step 141000
Ar 9.875540e-01 0.000000e+00 0.000000e+00
1
Step 142000
Ar 9.809136e-01 0.000000e+00 0.000000e+00
1
Step 143000
Ar 9.778670e-01 0.000000e+00 0.000000e+00
1
Step 144000
Ar 9.763779e-01 0.000000e+00 0.000000e+00
1
Step 145000
Ar 9.916342e-01 0.000000e+00 0.000000e+00
1
Step 146000
Ar 9.776714e-01 0.000000e+00 0.000000e+00
1
Step 147000
Ar 9.725837e-01 0.000000e+00 0.000000e+00
1
Step 148000
Ar 9.808318e-01 0.000000e+00 0.000000e+00
1
Step 149000
Ar 9.773634e-01 0.000000e+00 0.000000e+00
1
Step 150000
Ar 9.826810e-01 0.000000e+00 0.000000e+00
1
Step 151000
Ar 9.630624e-01 0.000000e+00 0.000000e+00
1
Step 152000
Ar 9.715269e-01 0.000000e+00 0.000000e+00
1
Step 153000
Ar 9.608128e-01 0.000000e+00 0.000000e+00
1
Step 154000
Ar 9.687233e-01 0.000000e+00 0.000000e+00
1
Step 155000
Ar 9.668734e-01 0.000000e+00 0.000000e+00
1
Step 156000
Ar 9.564940e-01 0.000000e+00 0.000000e+00
1
Step 157000
Ar 9.405930e-01 0.000000e+00 0.000000e+00
1
Step 158000
Ar 9.508931e-01 0.000000e+00 0.000000e+00
1
Step 159000
Ar 9.609598e-01 0.000000e+00 0.000000e+00
1
Step 160000
Ar 9.550570e-01 0.000000e+00 0.000000e+00
1
Step 161000
Ar 1.032089e+00 0.000000e+00 0.000000e+00
1
Step 162000
Ar 7.551866e-01 0.000000e+00 0.000000e+00
1
Step 163000
Ar 9.315022e-01 0.000000e+00 0.000000e+00
1
Step 164000
Ar 9.432527e-01 0.000000e+00 0.000000e+00
1
Step 165000
Ar 9.411546e-01 0.000000e+00 0.000000e+00
1
Step 166000
Ar 9.976591e-01 0.000000e+00 0.000000e+00
1
Step 167000
Ar 1.126836e+00 0.000000e+00 0.000000e+00
1
Step 168000
Ar 9.321433e-01 0.000000e+00 0.000000e+00
1
Step 169000
Ar 9.310990e-01 0.000000e+00 0.000000e+00
1
Step 170000
Ar 9.270942e-01 0.000000e+00 0.000000e+00
1
Step 171000
Ar 1.004065e+00 0.000000e+00 0.000000e+00
1
Step 172000
Ar 9.734595e-01 0.000000e+00 0.000000e+00
1
Step 173000
Ar 9.683083e-01 0.000000e+00 0.000000e+00
1
Step 174000
Ar 1.000961e+00 0.000000e+00 0.000000e+00
1
Step 175000
Ar 9.966728e-01 0.000000e+00 0.000000e+00
1
Step 176000
Ar 9.348020e-01 0.000000e+00 0.000000e+00
1
Step 177000
Ar 1.070080e+00 0.000000e+00 0.000000e+00
1
Step 178000
Ar 1.003832e+00 0.000000e+00 0.000000e+00
1
Step 179000
Ar 9.482947e-01 0.000000e+00 0.000000e+00
1
Step 180000
Ar 1.066770e+00 0.000000e+00 0.000000e+00
1
Step 181000
Ar 9.253262e-01 0.000000e+00 0.000000e+00
1
Step 182000
Ar 1.106006e+00 0.000000e+00 0.000000e+00
1
Step 183000
Ar 8.846563e-01 0.000000e+00 0.000000e+00
1
Step 184000
Ar 1.100550e+00 0.000000e+00 0.000000e+00
1
Step 185000
Ar 1.089679e+00 0.000000e+00 0.000000e+00
1
Step 186000
Ar 9.216637e-01 0.000000e+00 0.000000e+00
1
Step 187000
Ar 9.150178e-01 0.000000e+00 0.000000e+00
1
Step 188000
Ar 9.141823e-01 0.000000e+00 0.000000e+00
1
Step 189000
Ar 9.177247e-01 0.000000e+00 0.000000e+00
1
Step 190000
Ar 9.145666e-01 0.000000e+00 0.000000e+00
1
Step 191000
Ar 9.955245e-01 0.000000e+00 0.000000e+00
1
Step 192000
Ar 1.211142e+00 0.000000e+00 0.000000e+00
1
Step 193000
Ar 1.047655e+00 0.000000e+00 0.000000e+00
1
Step 194000
Ar 9.490764e-01 0.000000e+00 0.000000e+00
1
Step 195000
Ar 1.027890e+00 0.000000e+00 0.000000e+00
1
Step 196000
Ar 1.078308e+00 0.000000e+00 0.000000e+00
1
Step 197000
Ar 1.151811e+00 0.000000e+00 0.000000e+00
1
Step 198000
Ar 1.041680e+00 0.000000e+00 0.000000e+00
1
Step 199000
Ar 9.568790e-01 0.000000e+00 0.000000e+00
1
Step 200000
Ar 1.048524e+00 0.000000e+00 0.000000e+00
1
Step 201000
Ar 1.160645e+00 0.000000e+00 0.000000e+00
1
Step 202000
Ar 1.075548e+00 0.000000e+00 0.000000e+00
1
Step 203000
Ar 1.009148e+00 0.000000e+00 0.000000e+00
1
Step 204000
Ar 9.969106e-01 0.000000e+00 0.000000e+00
1
Step 205000
Ar 9.241437e-01 0.000000e+00 0.000000e+00
1
Step 206000
Ar 1.076922e+00 0.000000e+00 0.000000e+00
1
Step 207000
Ar 1.074789e+00 0.000000e+00 0.000000e+00
1
Step 208000
Ar 1.075711e+00 0.000000e+00 0.000000e+00
1
Step 209000
Ar 1.076082e+00 0.000000e+00 0.000000e+00
1
Step 210000
Ar 1.078965e+00 0.000000e+00 0.000000e+00
1
Step 211000
Ar 9.039617e-01 0.000000e+00 0.000000e+00
1
Step 212000
Ar 9.050209e-01 0.000000e+00 0.000000e+00
1
Step 213000
Ar 9.010012e-01 0.000000e+00 0.000000e+00
1
Step 214000
Ar 8.988504e-01 0.000000e+00 0.000000e+00
1
Step 215000
Ar 9.030018e-01 0.000000e+00 0.000000e+00
1
Step 216000
Ar 8.946184e-01 0.000000e+00 0.000000e+00
1
Step 217000
Ar 9.139499e-01 0.000000e+00 0.000000e+00
1
Step 218000
Ar 9.173693e-01 0.000000e+00 0.000000e+00
1
Step 219000
Ar 1.036277e+00 0.000000e+00 0.000000e+00
1
Step 220000
Ar 1.031820e+00 0.000000e+00 0.000000e+00
1
Step 221000
Ar 1.044386e+00 0.000000e+00 0.000000e+00
1
Step 222000
Ar 1.060952e+00 0.000000e+00 0.000000e+00
1
Step 223000
Ar 1.039750e+00 0.000000e+00 0.000000e+00
1
Step 224000
Ar 9.727995e-01 0.000000e+00 0.000000e+00
1
Step 225000
Ar 1.221058e+00 0.000000e+00 0.000000e+00
1
Step 226000
Ar 9.580040e-01 0.000000e+00 0.000000e+00
1
Step 227000
Ar 9.205572e-01 0.000000e+00 0.000000e+00
1
Step 228000
Ar 9.130946e-01 0.000000e+00 0.000000e+00
1
Step 229000
Ar 1.065889e+00 0.000000e+00 0.000000e+00
1
Step 230000
Ar 9.152284e-01 0.000000e+00 0.000000e+00
1
Step 231000
Ar 9.755602e-01 0.000000e+00 0.000000e+00
1
Step 232000
Ar 1.102669e+00 0.000000e+00 0.000000e+00
1
Step 233000
Ar 9.577992e-01 0.000000e+00 0.000000e+00
1
Step 234000
Ar 8.920882e-01 0.000000e+00 0.000000e+00
1
Step 235000
Ar 8.950008e-01 0.000000e+00 0.000000e+00
1
Step 236000
Ar 8.843539e-01 0.000000e+00 0.000000e+00
1
Step 237000
Ar 8.896584e-01 0.000000e+00 0.000000e+00
1
Step 238000
Ar 8.833397e-01 0.000000e+00 0.000000e+00
1
Step 239000
Ar 8.838165e-01 0.000000e+00 0.000000e+00
1
Step 240000
Ar 8.832188e-01 0.000000e+00 0.000000e+00
1
Step 241000
Ar 8.808283e-01 0.000000e+00 0.000000e+00
1
Step 242000
Ar 8.939182e-01 0.000000e+00 0.000000e+00
1
Step 243000
Ar 1.206947e+00 0.000000e+00 0.000000e+00
1
Step 244000
Ar 9.510005e-01 0.000000e+00 0.000000e+00
1
Step 245000
Ar 1.069289e+00 0.000000e+00 0.000000e+00
1
Step 246000
Ar 1.038720e+00 0.000000e+00 0.000000e+00
1
Step 247000
Ar 9.400562e-01 0.000000e+00 0.000000e+00
1
Step 248000
Ar 1.023622e+00 0.000000e+00 0.000000e+00
1
Step 249000
Ar 1.136834e+00 0.000000e+00 0.000000e+00
1
Step 250000
Ar 9.205034e-01 0.000000e+00 0.000000e+00
1
Step 251000
Ar 8.733474e-01 0.000000e+00 0.000000e+00
1
Step 252000
Ar 8.749375e-01 0.000000e+00 0.000000e+00
1
Step 253000
Ar 8.680877e-01 0.000000e+00 0.000000e+00
1
Step 254000
Ar 9.656775e-01 0.000000e+00 0.000000e+00
1
Step 255000
Ar 1.042883e+00 0.000000e+00 0.000000e+00
1
Step 256000
Ar 8.657863e-01 0.000000e+00 0.000000e+00
1
Step 257000
Ar 1.036380e+00 0.000000e+00 0.000000e+00
1
Step 258000
Ar 8.138108e-01 0.000000e+00 0.000000e+00
1
Step 259000
Ar 9.769404e-01 0.000000e+00 0.000000e+00
1
Step 260000
Ar 9.777249e-01 0.000000e+00 0.000000e+00
1
Step 261000
Ar 8.766143e-01 0.000000e+00 0.000000e+00
1
Step 262000
Ar 1.099127e+00 0.000000e+00 0.000000e+00
1
Step 263000
Ar 1.100254e+00 0.000000e+00 0.000000e+00
1
Step 264000
Ar 1.100717e+00 0.000000e+00 0.000000e+00
1
Step 265000
Ar 1.097840e+00 0.000000e+00 0.000000e+00
1
Step 266000
Ar 1.107685e+00 0.000000e+00 0.000000e+00
1
Step 267000
Ar 1.065283e+00 0.000000e+00 0.000000e+00
1
Step 268000
Ar 1.097013e+00 0.000000e+00 0.000000e+00
1
Step 269000
Ar 9.505896e-01 0.000000e+00 0.000000e+00
1
Step 270000
Ar 1.062752e+00 0.000000e+00 0.000000e+00
1
Step 271000
Ar 1.146283e+00 0.000000e+00 0.000000e+00
1
Step 272000
Ar 8.318476e-01 0.000000e+00 0.000000e+00
1
Step 273000
Ar 1.094727e+00 0.000000e+00 0.000000e+00
1
Step 274000
Ar 9.639270e-01 0.000000e+00 0.000000e+00
1
Step 275000
Ar 1.005141e+00 0.000000e+00 0.000000e+00
1
Step 276000
Ar 8.714486e-01 0.000000e+00 0.000000e+00
1
Step 277000
Ar 8.737020e-01 0.000000e+00 0.000000e+00
1
Step 278000
Ar 8.616753e-01 0.000000e+00 0.000000e+00
1
Step 279000
Ar 9.827468e-01 0.000000e+00 0.000000e+00
1
Step 280000
Ar 9.598408e-01 0.000000e+00 0.000000e+00
1
Step 281000
Ar 9.691309e-01 0.000000e+00 0.000000e+00
1
Step 282000
Ar 1.106383e+00 0.000000e+00 0.000000e+00
1
Step 283000
Ar 1.012406e+00 0.000000e+00 0.000000e+00
1
Step 284000
Ar 1.013703e+00 0.000000e+00 0.000000e+00
1
Step 285000
Ar 9.703294e-01 0.000000e+00 0.000000e+00
1
Step 286000
Ar 1.015268e+00 0.000000e+00 0.000000e+00
1
Step 287000
Ar 1.014596e+00 0.000000e+00 0.000000e+00
1
Step 288000
Ar 1.017167e+00 0.000000e+00 0.000000e+00
1
Step 289000
Ar 8.719108e-01 0.000000e+00 0.000000e+00
1
Step 290000
Ar 8.675374e-01 0.000000e+00 0.000000e+00
1
Step 291000
Ar 1.012131e+00 0.000000e+00 0.000000e+00
1
Step 292000
Ar 1.046924e+00 0.000000e+00 0.000000e+00
1
Step 293000
Ar 8.569841e-01 0.000000e+00 0.000000e+00
1
Step 294000
Ar 9.072700e-01 0.000000e+00 0.000000e+00
1
Step 295000
Ar 9.871696e-01 0.000000e+00 0.000000e+00
1
Step 296000
Ar 1.014617e+00 0.000000e+00 0.000000e+00
1
Step 297000
Ar 1.016892e+00 0.000000e+00 0.000000e+00
1
Step 298000
Ar 8.712643e-01 0.000000e+00 0.000000e+00
1
Step 299000
Ar 1.023907e+00 0.000000e+00 0.000000e+00
1
Step 300000
Ar 1.018475e+00 0.000000e+00 0.000000e+00
1
Step 301000
Ar 1.079406e+00 0.000000e+00 0.000000e+00
1
Step 302000
Ar 1.001257e+00 0.000000e+00 0.000000e+00
1
Step 303000
Ar 1.000993e+00 0.000000e+00 0.000000e+00
1
Step 304000
Ar 9.993703e-01 0.000000e+00 0.000000e+00
1
Step 305000
Ar 1.006974e+00 0.000000e+00 0.000000e+00
1
Step 306000
Ar 9.003692e-01 0.000000e+00 0.000000e+00
1
Step 307000
Ar 1.013445e+00 0.000000e+00 0.000000e+00
1
Step 308000
Ar 1.020195e+00 0.000000e+00 0.000000e+00
1
Step 309000
Ar 1.037316e+00 0.000000e+00 0.000000e+00
1
Step 310000
Ar 7.750936e-01 0.000000e+00 0.000000e+00
1
Step 311000
Ar 1.084966e+00 0.000000e+00 0.000000e+00
1
Step 312000
Ar 1.111566e+00 0.000000e+00 0.000000e+00
1
Step 313000
Ar 1.104974e+00 0.000000e+00 0.000000e+00
1
Step 314000
Ar 1.106211e+00 0.000000e+00 0.000000e+00
1
Step 315000
Ar 1.014999e+00 0.000000e+00 0.000000e+00
1
Step 316000
Ar 1.024596e+00 0.000000e+00 0.000000e+00
1
Step 317000
Ar 1.043829e+00 0.000000e+00 0.000000e+00
1
Step 318000
Ar 1.039636e+00 0.000000e+00 0.000000e+00
1
Step 319000
Ar 1.033761e+00 0.000000e+00 0.000000e+00
1
Step 320000
Ar 1.029254e+00 0.000000e+00 0.000000e+00
1
Step 321000
Ar 1.077272e+00 0.000000e+00 0.000000e+00
1
Step 322000
Ar 1.080901e+00 0.000000e+00 0.000000e+00
1
Step 323000
Ar 1.074750e+00 0.000000e+00 0.000000e+00
1
Step 324000
Ar 1.075190e+00 0.000000e+00 0.000000e+00
1
Step 325000
Ar 1.080487e+00 0.000000e+00 0.000000e+00
1
Step 326000
Ar 8.313733e-01 0.000000e+00 0.000000e+00
1
Step 327000
Ar 9.528482e-01 0.000000e+00 0.000000e+00
1
Step 328000
Ar 9.800478e-01 0.000000e+00 0.000000e+00
1
Step 329000
Ar 9.707275e-01 0.000000e+00 0.000000e+00
1
Step 330000
Ar 9.476253e-01 0.000000e+00 0.000000e+00
1
Step 331000
Ar 9.797011e-01 0.000000e+00 0.000000e+00
1
Step 332000
Ar 9.953316e-01 0.000000e+00 0.000000e+00
1
Step 333000
Ar 8.729313e-01 0.000000e+00 0.000000e+00
1
Step 334000
Ar 9.745821e-01 0.000000e+00 0.000000e+00
1
Step 335000
Ar 9.701367e-01 0.000000e+00 0.000000e+00
1
Step 336000
Ar 1.056098e+00 0.000000e+00 0.000000e+00
1
Step 337000
Ar 1.051637e+00 0.000000e+00 0.000000e+00
1
Step 338000
Ar 1.048752e+00 0.000000e+00 0.000000e+00
1
Step 339000
Ar 1.056622e+00 0.000000e+00 0.000000e+00
1
Step 340000
Ar 1.058054e+00 0.000000e+00 0.000000e+00
1
Step 341000
Ar 1.039249e+00 0.000000e+00 0.000000e+00
1
Step 342000
Ar 1.041060e+00 0.000000e+00 0.000000e+00
1
Step 343000
Ar 1.042367e+00 0.000000e+00 0.000000e+00
1
Step 344000
Ar 1.044655e+00 0.000000e+00 0.000000e+00
1
Step 345000
Ar 1.041913e+00 0.000000e+00 0.000000e+00
1
Step 346000
Ar 1.106592e+00 0.000000e+00 0.000000e+00
1
Step 347000
Ar 1.103452e+00 0.000000e+00 0.000000e+00
1
Step 348000
Ar 1.110088e+00 0.000000e+00 0.000000e+00
1
Step 349000
Ar 9.828509e-01 0.000000e+00 0.000000e+00
1
Step 350000
Ar 1.056569e+00 0.000000e+00 0.000000e+00
1
Step 351000
Ar 8.575409e-01 0.000000e+00 0.000000e+00
1
Step 352000
Ar 8.531178e-01 0.000000e+00 0.000000e+00
1
Step 353000
Ar 9.511421e-01 0.000000e+00 0.000000e+00
1
Step 354000
Ar 1.050774e+00 0.000000e+00 0.000000e+00
1
Step 355000
Ar 1.116698e+00 0.000000e+00 0.000000e+00
1
Step 356000
Ar 1.236078e+00 0.000000e+00 0.000000e+00
1
Step 357000
Ar 1.234343e+00 0.000000e+00 0.000000e+00
1
Step 358000
Ar 9.053561e-01 0.000000e+00 0.000000e+00
1
Step 359000
Ar 9.528295e-01 0.000000e+00 0.000000e+00
1
Step 360000
Ar 1.017207e+00 0.000000e+00 0.000000e+00
1
Step 361000
Ar 8.360500e-01 0.000000e+00 0.000000e+00
1
Step 362000
Ar 7.587880e-01 0.000000e+00 0.000000e+00
1
Step 363000
Ar 9.507335e-01 0.000000e+00 0.000000e+00
1
Step 364000
Ar 9.646283e-01 0.000000e+00 0.000000e+00
1
Step 365000
Ar 1.007997e+00 0.000000e+00 0.000000e+00
1
Step 366000
Ar 9.180258e-01 0.000000e+00 0.000000e+00
1
Step 367000
Ar 1.213365e+00 0.000000e+00 0.000000e+00
1
Step 368000
Ar 1.106808e+00 0.000000e+00 0.000000e+00
1
Step 369000
Ar 9.246827e-01 0.000000e+00 0.000000e+00
1
Step 370000
Ar 8.410316e-01 0.000000e+00 0.000000e+00
1
Step 371000
Ar 1.065607e+00 0.000000e+00 0.000000e+00
1
Step 372000
Ar 9.065890e-01 0.000000e+00 0.000000e+00
1
Step 373000
Ar 9.245085e-01 0.000000e+00 0.000000e+00
1
Step 374000
Ar 1.033528e+00 0.000000e+00 0.000000e+00
1
Step 375000
Ar 9.986285e-01 0.000000e+00 0.000000e+00
1
Step 376000
Ar 1.115845e+00 0.000000e+00 0.000000e+00
1
Step 377000
Ar 9.145765e-01 0.000000e+00 0.000000e+00
1
Step 378000
Ar 1.105008e+00 0.000000e+00 0.000000e+00
1
Step 379000
Ar 9.066668e-01 0.000000e+00 0.000000e+00
1
Step 380000
Ar 7.582167e-01 0.000000e+00 0.000000e+00
1
Step 381000
Ar 8.737189e-01 0.000000e+00 0.000000e+00
1
Step 382000
Ar 9.275740e-01 0.000000e+00 0.000000e+00
1
Step 383000
Ar 8.504234e-01 0.000000e+00 0.000000e+00
1
Step 384000
Ar 9.820285e-01 0.000000e+00 0.000000e+00
1
Step 385000
Ar 9.805407e-01 0.000000e+00 0.000000e+00
1
Step 386000
Ar 1.012786e+00 0.000000e+00 0.000000e+00
1
Step 387000
Ar 1.087679e+00 0.000000e+00 0.000000e+00
1
Step 388000
Ar 1.085187e+00 0.000000e+00 0.000000e+00
1
Step 389000
Ar 7.573576e-01 0.000000e+00 0.000000e+00
1
Step 390000
Ar 8.742975e-01 0.000000e+00 0.000000e+00
1
Step 391000
Ar 1.113987e+00 0.000000e+00 0.000000e+00
1
Step 392000
Ar 8.542817e-01 0.000000e+00 0.000000e+00
1
Step 393000
Ar 8.560263e-01 0.000000e+00 0.000000e+00
1
Step 394000
Ar 8.586526e-01 0.000000e+00 0.000000e+00
1
Step 395000
Ar 8.596003e-01 0.000000e+00 0.000000e+00
1
Step 396000
Ar 9.481037e-01 0.000000e+00 0.000000e+00
1
Step 397000
Ar 5.737256e-01 0.000000e+00 0.000000e+00
1
Step 398000
Ar 1.090666e+00 0.000000e+00 0.000000e+00
1
Step 399000
Ar 8.303739e-01 0.000000e+00 0.000000e+00
1
Step 400000
Ar 9.933148e-01 0.000000e+00 0.000000e+00
1
Step 401000
Ar 8.237308e-01 0.000000e+00 0.000000e+00
1
Step 402000
Ar 7.669460e-01 0.000000e+00 0.000000e+00
1
Step 403000
Ar 1.124557e+00 0.000000e+00 0.000000e+00
1
Step 404000
Ar 9.564263e-01 0.000000e+00 0.000000e+00
1
Step 405000
Ar 1.030745e+00 0.000000e+00 0.000000e+00
1
Step 406000
Ar 1.209879e+00 0.000000e+00 0.000000e+00
1
Step 407000
Ar 9.300630e-01 0.000000e+00 0.000000e+00
1
Step 408000
Ar 1.041525e+00 0.000000e+00 0.000000e+00
1
Step 409000
Ar 1.263412e+00 0.000000e+00 0.000000e+00
1
Step 410000
Ar 6.585520e-01 0.000000e+00 0.000000e+00
1
Step 411000
Ar 1.069925e+00 0.000000e+00 0.000000e+00
1
Step 412000
Ar 9.336620e-01 0.000000e+00 0.000000e+00
1
Step 413000
Ar 1.081470e+00 0.000000e+00 0.000000e+00
1
Step 414000
Ar 9.996961e-01 0.000000e+00 0.000000e+00
1
Step 415000
Ar 1.034446e+00 0.000000e+00 0.000000e+00
1
Step 416000
Ar 9.868592e-01 0.000000e+00 0.000000e+00
1
Step 417000
Ar 1.125201e+00 0.000000e+00 0.000000e+00
1
Step 418000
Ar 9.081207e-01 0.000000e+00 0.000000e+00
1
Step 419000
Ar 1.104793e+00 0.000000e+00 0.000000e+00
1
Step 420000
Ar 6.765258e-01 0.000000e+00 0.000000e+00
1
Step 421000
Ar 1.039813e+00 0.000000e+00 0.000000e+00
1
Step 422000
Ar 9.428025e-01 0.000000e+00 0.000000e+00
1
Step 423000
Ar 1.033288e+00 0.000000e+00 0.000000e+00
1
Step 424000
Ar 1.085552e+00 0.000000e+00 0.000000e+00
1
Step 425000
Ar 1.074836e+00 0.000000e+00 0.000000e+00
1
Step 426000
Ar 9.382150e-01 0.000000e+00 0.000000e+00
1
Step 427000
Ar 9.116051e-01 0.000000e+00 0.000000e+00
1
Step 428000
Ar 9.625876e-01 0.000000e+00 0.000000e+00
1
Step 429000
Ar 8.875408e-01 0.000000e+00 0.000000e+00
1
Step 430000
Ar 8.449470e-01 0.000000e+00 0.000000e+00
1
Step 431000
Ar 1.091757e+00 0.000000e+00 0.000000e+00
1
Step 432000
Ar 7.415392e-01 0.000000e+00 0.000000e+00
1
Step 433000
Ar 9.795907e-01 0.000000e+00 0.000000e+00
1
Step 434000
Ar 8.593269e-01 0.000000e+00 0.000000e+00
1
Step 435000
Ar 9.500444e-01 0.000000e+00 0.000000e+00
1
Step 436000
Ar 9.722864e-01 0.000000e+00 0.000000e+00
1
Step 437000
Ar 8.900696e-01 0.000000e+00 0.000000e+00
1
Step 438000
Ar 1.170142e+00 0.000000e+00 0.000000e+00
1
Step 439000
Ar 7.357275e-01 0.000000e+00 0.000000e+00
1
Step 440000
Ar 5.381616e-01 0.000000e+00 0.000000e+00
1
Step 441000
Ar 8.955806e-01 0.000000e+00 0.000000e+00
1
Step 442000
Ar 8.332260e-01 0.000000e+00 0.000000e+00
1
Step 443000
Ar 8.264328e-01 0.000000e+00 0.000000e+00
1
Step 444000
Ar 7.117147e-01 0.000000e+00 0.000000e+00
1
Step 445000
Ar 9.025800e-01 0.000000e+00 0.000000e+00
1
Step 446000
Ar 7.100063e-01 0.000000e+00 0.000000e+00
1
Step 447000
Ar 1.162166e+00 0.000000e+00 0.000000e+00
1
Step 448000
Ar 1.088806e+00 0.000000e+00 0.000000e+00
1
Step 449000
Ar 9.863800e-01 0.000000e+00 0.000000e+00
1
Step 450000
Ar 1.102783e+00 0.000000e+00 0.000000e+00
1
Step 451000
Ar 1.203567e+00 0.000000e+00 0.000000e+00
1
Step 452000
Ar 9.102636e-01 0.000000e+00 0.000000e+00
1
Step 453000
Ar 8.354527e-01 0.000000e+00 0.000000e+00
1
Step 454000
Ar 9.704144e-01 0.000000e+00 0.000000e+00
1
Step 455000
Ar 7.194649e-01 0.000000e+00 0.000000e+00
1
Step 456000
Ar 1.092263e+00 0.000000e+00 0.000000e+00
1
Step 457000
Ar 1.092576e+00 0.000000e+00 0.000000e+00
1
Step 458000
Ar 9.704133e-01 0.000000e+00 0.000000e+00
1
Step 459000
Ar 1.007683e+00 0.000000e+00 0.000000e+00
1
Step 460000
Ar 5.106991e-01 0.000000e+00 0.000000e+00
1
Step 461000
Ar 9.037345e-01 0.000000e+00 0.000000e+00
1
Step 462000
Ar 7.588395e-01 0.000000e+00 0.000000e+00
1
Step 463000
Ar 8.504928e-01 0.000000e+00 0.000000e+00
1
Step 464000
Ar 8.323447e-01 0.000000e+00 0.000000e+00
1
Step 465000
Ar 8.303819e-01 0.000000e+00 0.000000e+00
1
Step 466000
Ar 7.256042e-01 0.000000e+00 0.000000e+00
1
Step 467000
Ar 1.028390e+00 0.000000e+00 0.000000e+00
1
Step 468000
Ar 1.044383e+00 0.000000e+00 0.000000e+00
1
Step 469000
Ar 1.088200e+00 0.000000e+00 0.000000e+00
1
Step 470000
Ar 1.086889e+00 0.000000e+00 0.000000e+00
1
Step 471000
Ar 1.050402e+00 0.000000e+00 0.000000e+00
1
Step 472000
Ar 8.762747e-01 0.000000e+00 0.000000e+00
1
Step 473000
Ar 7.443142e-01 0.000000e+00 0.000000e+00
1
Step 474000
Ar 9.676574e-01 0.000000e+00 0.000000e+00
1
Step 475000
Ar 8.917423e-01 0.000000e+00 0.000000e+00
1
Step 476000
Ar 8.850142e-01 0.000000e+00 0.000000e+00
1
Step 477000
Ar 8.899468e-01 0.000000e+00 0.000000e+00
1
Step 478000
Ar 1.090408e+00 0.000000e+00 0.000000e+00
1
Step 479000
Ar 7.816958e-01 0.000000e+00 0.000000e+00
1
Step 480000
Ar 9.568156e-01 0.000000e+00 0.000000e+00
1
Step 481000
Ar 1.018623e+00 0.000000e+00 0.000000e+00
1
Step 482000
Ar 1.034727e+00 0.000000e+00 0.000000e+00
1
Step 483000
Ar 1.106472e+00 0.000000e+00 0.000000e+00
1
Step 484000
Ar 7.902947e-01 0.000000e+00 0.000000e+00
1
Step 485000
Ar 8.827176e-01 0.000000e+00 0.000000e+00
1
Step 486000
Ar 1.201358e+00 0.000000e+00 0.000000e+00
1
Step 487000
Ar 1.087065e+00 0.000000e+00 0.000000e+00
1
Step 488000
Ar 9.001007e-01 0.000000e+00 0.000000e+00
1
Step 489000
Ar 1.026348e+00 0.000000e+00 0.000000e+00
1
Step 490000
Ar 1.231682e+00 0.000000e+00 0.000000e+00
1
Step 491000
Ar 7.604887e-01 0.000000e+00 0.000000e+00
1
Step 492000
Ar 9.935882e-01 0.000000e+00 0.000000e+00
1
Step 493000
Ar 7.140190e-01 0.000000e+00 0.000000e+00
1
Step 494000
Ar 1.091486e+00 0.000000e+00 0.000000e+00
1
Step 495000
Ar 8.852842e-01 0.000000e+00 0.000000e+00
1
Step 496000
Ar 9.763412e-01 0.000000e+00 0.000000e+00
1
Step 497000
Ar 8.208082e-01 0.000000e+00 0.000000e+00
1
Step 498000
Ar 8.151050e-01 0.000000e+00 0.000000e+00
1
Step 499000
Ar 8.704017e-01 0.000000e+00 0.000000e+00
1
Step 500000
Ar 1.067808e+00 0.000000e+00 0.000000e+00
1
Step 501000
Ar 9.363278e-01 0.000000e+00 0.000000e+00
1
Step 502000
Ar 8.723961e-01 0.000000e+00 0.000000e+00
1
Step 503000
Ar 1.093587e+00 0.000000e+00 0.000000e+00
1
Step 504000
Ar 1.093729e+00 0.000000e+00 0.000000e+00
1
Step 505000
Ar 9.643787e-01 0.000000e+00 0.000000e+00
1
Step 506000
Ar 8.121346e-01 0.000000e+00 0.000000e+00
1
Step 507000
Ar 8.666628e-01 0.000000e+00 0.000000e+00
1
Step 508000
Ar 8.530522e-01 0.000000e+00 0.000000e+00
1
Step 509000
Ar 1.000515e+00 0.000000e+00 0.000000e+00
1
Step 510000
Ar 9.970897e-01 0.000000e+00 0.000000e+00
1
Step 511000
Ar 1.138135e+00 0.000000e+00 0.000000e+00
1
Step 512000
Ar 7.064293e-01 0.000000e+00 0.000000e+00
1
Step 513000
Ar 4.006083e-01 0.000000e+00 0.000000e+00
1
Step 514000
Ar 1.158519e+00 0.000000e+00 0.000000e+00
1
Step 515000
Ar 8.176682e-01 0.000000e+00 0.000000e+00
1
Step 516000
Ar 9.438282e-01 0.000000e+00 0.000000e+00
1
Step 517000
Ar 8.757057e-01 0.000000e+00 0.000000e+00
1
Step 518000
Ar 8.681910e-01 0.000000e+00 0.000000e+00
1
Step 519000
Ar 8.605591e-01 0.000000e+00 0.000000e+00
1
Step 520000
Ar 1.092261e+00 0.000000e+00 0.000000e+00
1
Step 521000
Ar 8.153194e-01 0.000000e+00 0.000000e+00
1
Step 522000
Ar 1.088702e+00 0.000000e+00 0.000000e+00
1
Step 523000
Ar 1.191407e+00 0.000000e+00 0.000000e+00
1
Step 524000
Ar 1.076986e+00 0.000000e+00 0.000000e+00
1
Step 525000
Ar 1.075717e+00 0.000000e+00 0.000000e+00
1
Step 526000
Ar 1.037604e+00 0.000000e+00 0.000000e+00
1
Step 527000
Ar 9.698712e-01 0.000000e+00 0.000000e+00
1
Step 528000
Ar 1.103684e+00 0.000000e+00 0.000000e+00
1
Step 529000
Ar 1.013890e+00 0.000000e+00 0.000000e+00
1
Step 530000
Ar 9.982900e-01 0.000000e+00 0.000000e+00
1
Step 531000
Ar 1.071792e+00 0.000000e+00 0.000000e+00
1
Step 532000
Ar 6.885669e-01 0.000000e+00 0.000000e+00
1
Step 533000
Ar 1.130594e+00 0.000000e+00 0.000000e+00
1
Step 534000
Ar 9.722237e-01 0.000000e+00 0.000000e+00
1
Step 535000
Ar 8.145863e-01 0.000000e+00 0.000000e+00
1
Step 536000
Ar 9.486634e-01 0.000000e+00 0.000000e+00
1
Step 537000
Ar 7.764101e-01 0.000000e+00 0.000000e+00
1
Step 538000
Ar 9.287340e-01 0.000000e+00 0.000000e+00
1
Step 539000
Ar 8.955990e-01 0.000000e+00 0.000000e+00
1
Step 540000
Ar 1.087109e+00 0.000000e+00 0.000000e+00
1
Step 541000
Ar 9.545926e-01 0.000000e+00 0.000000e+00
1
Step 542000
Ar 1.012164e+00 0.000000e+00 0.000000e+00
1
Step 543000
Ar 9.729319e-01 0.000000e+00 0.000000e+00
1
Step 544000
Ar 8.034347e-01 0.000000e+00 0.000000e+00
1
Step 545000
Ar 1.131876e+00 0.000000e+00 0.000000e+00
1
Step 546000
Ar 8.022239e-01 0.000000e+00 0.000000e+00
1
Step 547000
Ar 9.896777e-01 0.000000e+00 0.000000e+00
1
Step 548000
Ar 9.906117e-01 0.000000e+00 0.000000e+00
1
Step 549000
Ar 8.720933e-01 0.000000e+00 0.000000e+00
1
Step 550000
Ar 8.658943e-01 0.000000e+00 0.000000e+00
1
Step 551000
Ar 7.813320e-01 0.000000e+00 0.000000e+00
1
Step 552000
Ar 1.078049e+00 0.000000e+00 0.000000e+00
1
Step 553000
Ar 1.077782e+00 0.000000e+00 0.000000e+00
1
Step 554000
Ar 1.157850e+00 0.000000e+00 0.000000e+00
1
Step 555000
Ar 1.135318e+00 0.000000e+00 0.000000e+00
1
Step 556000
Ar 1.268202e+00 0.000000e+00 0.000000e+00
1
Step 557000
Ar 1.238063e+00 0.000000e+00 0.000000e+00
1
Step 558000
Ar 9.545954e-01 0.000000e+00 0.000000e+00
1
Step 559000
Ar 1.228248e+00 0.000000e+00 0.000000e+00
1
Step 560000
Ar 8.202506e-01 0.000000e+00 0.000000e+00
1
Step 561000
Ar 9.033635e-01 0.000000e+00 0.000000e+00
1
Step 562000
Ar 5.588438e-01 0.000000e+00 0.000000e+00
1
Step 563000
Ar 1.142780e+00 0.000000e+00 0.000000e+00
1
Step 564000
Ar 1.148065e+00 0.000000e+00 0.000000e+00
1
Step 565000
Ar 8.731754e-01 0.000000e+00 0.000000e+00
1
Step 566000
Ar 9.363350e-01 0.000000e+00 0.000000e+00
1
Step 567000
Ar 1.058094e+00 0.000000e+00 0.000000e+00
1
Step 568000
Ar 8.776261e-01 0.000000e+00 0.000000e+00
1
Step 569000
Ar 8.037675e-01 0.000000e+00 0.000000e+00
1
Step 570000
Ar 8.052019e-01 0.000000e+00 0.000000e+00
1
Step 571000
Ar 7.995984e-01 0.000000e+00 0.000000e+00
1
Step 572000
Ar 7.966404e-01 0.000000e+00 0.000000e+00
1
Step 573000
Ar 7.948692e-01 0.000000e+00 0.000000e+00
1
Step 574000
Ar 7.942971e-01 0.000000e+00 0.000000e+00
1
Step 575000
Ar 7.979905e-01 0.000000e+00 0.000000e+00
1
Step 576000
Ar 7.895776e-01 0.000000e+00 0.000000e+00
1
Step 577000
Ar 1.158332e+00 0.000000e+00 0.000000e+00
1
Step 578000
Ar 8.674025e-01 0.000000e+00 0.000000e+00
1
Step 579000
Ar 9.775758e-01 0.000000e+00 0.000000e+00
1
Step 580000
Ar 1.032545e+00 0.000000e+00 0.000000e+00
1
Step 581000
Ar -1.060760e+00 0.000000e+00 0.000000e+00
1
Step 582000
Ar -1.008263e+00 0.000000e+00 0.000000e+00
1
Step 583000
Ar -1.004143e+00 0.000000e+00 0.000000e+00
1
Step 584000
Ar -1.015845e+00 0.000000e+00 0.000000e+00
1
Step 585000
Ar -1.003097e+00 0.000000e+00 0.000000e+00
1
Step 586000
Ar -9.889239e-01 0.000000e+00 0.000000e+00
1
Step 587000
Ar -9.859743e-01 0.000000e+00 0.000000e+00
1
Step 588000
Ar -9.921382e-01 0.000000e+00 0.000000e+00
1
Step 589000
Ar -9.914536e-01 0.000000e+00 0.000000e+00
1
Step 590000
Ar -9.868740e-01 0.000000e+00 0.000000e+00
1
Step 591000
Ar -9.744058e-01 0.000000e+00 0.000000e+00
1
Step 592000
Ar -9.673077e-01 0.000000e+00 0.000000e+00
1
Step 593000
Ar -9.709316e-01 0.000000e+00 0.000000e+00
1
Step 594000
Ar -9.729681e-01 0.000000e+00 0.000000e+00
1
Step 595000
Ar -9.594911e-01 0.000000e+00 0.000000e+00
1
Step 596000
Ar -9.452054e-01 0.000000e+00 0.000000e+00
1
Step 597000
Ar -9.456553e-01 0.000000e+00 0.000000e+00
1
Step 598000
Ar -9.433023e-01 0.000000e+00 0.000000e+00
1
Step 599000
Ar -9.497169e-01 0.000000e+00 0.000000e+00
1
Step 600000
Ar -9.438292e-01 0.000000e+00 0.000000e+00
1
Step 601000
Ar -1.020124e+00 0.000000e+00 0.000000e+00
1
Step 602000
Ar -1.027290e+00 0.000000e+00 0.000000e+00
1
Step 603000
Ar -1.021932e+00 0.000000e+00 0.000000e+00
1
Step 604000
Ar -1.013265e+00 0.000000e+00 0.000000e+00
1
Step 605000
Ar -1.018469e+00 0.000000e+00 0.000000e+00
1
Step 606000
Ar -1.030859e+00 0.000000e+00 0.000000e+00
1
Step 607000
Ar -1.032805e+00 0.000000e+00 0.000000e+00
1
Step 608000
Ar -1.033225e+00 0.000000e+00 0.000000e+00
1
Step 609000
Ar -1.030652e+00 0.000000e+00 0.000000e+00
1
Step 610000
Ar -1.033462e+00 0.000000e+00 0.000000e+00
1
Step 611000
Ar -1.045834e+00 0.000000e+00 0.000000e+00
1
Step 612000
Ar -1.049015e+00 0.000000e+00 0.000000e+00
1
Step 613000
Ar -1.043898e+00 0.000000e+00 0.000000e+00
1
Step 614000
Ar -1.049930e+00 0.000000e+00 0.000000e+00
1
Step 615000
Ar -1.044318e+00 0.000000e+00 0.000000e+00
1
Step 616000
Ar -1.009899e+00 0.000000e+00 0.000000e+00
1
Step 617000
Ar -9.728165e-01 0.000000e+00 0.000000e+00
1
Step 618000
Ar -9.760636e-01 0.000000e+00 0.000000e+00
1
Step 619000
Ar -9.723286e-01 0.000000e+00 0.000000e+00
1
Step 620000
Ar -9.748410e-01 0.000000e+00 0.000000e+00
1
Step 621000
Ar -9.281512e-01 0.000000e+00 0.000000e+00
1
Step 622000
Ar -9.321833e-01 0.000000e+00 0.000000e+00
1
Step 623000
Ar -9.294854e-01 0.000000e+00 0.000000e+00
1
Step 624000
Ar -9.314598e-01 0.000000e+00 0.000000e+00
1
Step 625000
Ar -9.351488e-01 0.000000e+00 0.000000e+00
1
Step 626000
Ar -9.201525e-01 0.000000e+00 0.000000e+00
1
Step 627000
Ar -9.275573e-01 0.000000e+00 0.000000e+00
1
Step 628000
Ar -9.221119e-01 0.000000e+00 0.000000e+00
1
Step 629000
Ar -9.213733e-01 0.000000e+00 0.000000e+00
1
Step 630000
Ar -9.282516e-01 0.000000e+00 0.000000e+00
1
Step 631000
Ar -9.189439e-01 0.000000e+00 0.000000e+00
1
Step 632000
Ar -9.078951e-01 0.000000e+00 0.000000e+00
1
Step 633000
Ar -9.180965e-01 0.000000e+00 0.000000e+00
1
Step 634000
Ar -9.159665e-01 0.000000e+00 0.000000e+00
1
Step 635000
Ar -9.168892e-01 0.000000e+00 0.000000e+00
1
Step 636000
Ar -9.051799e-01 0.000000e+00 0.000000e+00
1
Step 637000
Ar -9.075330e-01 0.000000e+00 0.000000e+00
1
Step 638000
Ar -9.051270e-01 0.000000e+00 0.000000e+00
1
Step 639000
Ar -9.026362e-01 0.000000e+00 0.000000e+00
1
Step 640000
Ar -9.060798e-01 0.000000e+00 0.000000e+00
1
Step 641000
Ar -8.967420e-01 0.000000e+00 0.000000e+00
1
Step 642000
Ar -9.018043e-01 0.000000e+00 0.000000e+00
1
Step 643000
Ar -8.963281e-01 0.000000e+00 0.000000e+00
1
Step 644000
Ar -8.946213e-01 0.000000e+00 0.000000e+00
1
Step 645000
Ar -8.945054e-01 0.000000e+00 0.000000e+00
1
Step 646000
Ar -8.819465e-01 0.000000e+00 0.000000e+00
1
Step 647000
Ar -8.800630e-01 0.000000e+00 0.000000e+00
1
Step 648000
Ar -8.828273e-01 0.000000e+00 0.000000e+00
1
Step 649000
Ar -9.785328e-01 0.000000e+00 0.000000e+00
1
Step 650000
Ar -9.649013e-01 0.000000e+00 0.000000e+00
1
Step 651000
Ar -9.238227e-01 0.000000e+00 0.000000e+00
1
Step 652000
Ar -9.788691e-01 0.000000e+00 0.000000e+00
1
Step 653000
Ar -7.233248e-01 0.000000e+00 0.000000e+00
1
Step 654000