1
Step 120000
Ar 1.006948e+00 0.000000e+00 0.000000e+00
1
Step 121000
Ar 9.851842e-01 0.000000e+00 0.000000e+00
1
Step 122000
Ar 9.259088e-01 0.000000e+00 0.000000e+00
1
Step 123000
Ar 9.475593e-01 0.000000e+00 0.000000e+00
1
Step 124000
Ar 7.969936e-01 0.000000e+00 0.000000e+00
1
Step 125000
Ar 8.111447e-01 0.000000e+00 0.000000e+00
1
Step 126000
Ar 7.625811e-01 0.000000e+00 0.000000e+00
1
Step 127000
Ar 7.197737e-01 0.000000e+00 0.000000e+00
1
Step 128000
Ar 7.900519e-01 0.000000e+00 0.000000e+00
1
Step 129000
Ar 7.375147e-01 0.000000e+00 0.000000e+00
1
Step 130000
Ar 7.263935e-01 0.000000e+00 0.000000e+00
1
Step 131000
Ar 7.642184e-01 0.000000e+00 0.000000e+00
1
Step 132000
Ar 7.533032e-01 0.000000e+00 0.000000e+00
1
Step 133000
Ar 7.453295e-01 0.000000e+00 0.000000e+00
1
Step 134000
Ar 7.695155e-01 0.000000e+00 0.000000e+00
1
Step 135000
Ar 7.511160e-01 0.000000e+00 0.000000e+00
1
Step 136000
Ar 1.098871e+00 0.000000e+00 0.000000e+00
1
Step 137000
Ar 9.092900e-01 0.000000e+00 0.000000e+00
1
Step 138000
Ar 1.091318e+00 0.000000e+00 0.000000e+00
1
Step 139000
Ar 8.938348e-01 0.000000e+00 0.000000e+00
1
Step 140000
Ar 1.067632e+00 0.000000e+00 0.000000e+00
1
Step 141000
Ar 8.668618e-01 0.000000e+00 0.000000e+00
1
Step 142000
Ar 9.118107e-01 0.000000e+00 0.000000e+00
1
Step 143000
Ar 1.026780e+00 0.000000e+00 0.000000e+00
1
Step 144000
Ar 9.853071e-01 0.000000e+00 0.000000e+00
1
Step 145000
Ar 8.253545e-01 0.000000e+00 0.000000e+00
1
Step 146000
Ar 5.560501e-01 0.000000e+00 0.000000e+00
1
Step 147000
Ar 5.745000e-01 0.000000e+00 0.000000e+00
1
Step 148000
Ar 6.001433e-01 0.000000e+00 0.000000e+00
1
Step 149000
Ar 7.133391e-01 0.000000e+00 0.000000e+00
1
Step 150000
Ar 7.137142e-01 0.000000e+00 0.000000e+00
1
Step 151000
Ar 6.516993e-01 0.000000e+00 0.000000e+00
1
Step 152000
Ar 6.308010e-01 0.000000e+00 0.000000e+00
1
Step 153000
Ar 6.239713e-01 0.000000e+00 0.000000e+00
1
Step 154000
Ar 6.132902e-01 0.000000e+00 0.000000e+00
1
Step 155000
Ar 6.441091e-01 0.000000e+00 0.000000e+00
1
Step 156000
Ar 4.461874e-01 0.000000e+00 0.000000e+00
1
Step 157000
Ar 5.797531e-01 0.000000e+00 0.000000e+00
1
Step 158000
Ar 5.512068e-01 0.000000e+00 0.000000e+00
1
Step 159000
Ar 5.617368e-01 0.000000e+00 0.000000e+00
1
Step 160000
Ar 6.254039e-01 0.000000e+00 0.000000e+00
1
Step 161000
Ar 4.172274e-01 0.000000e+00 0.000000e+00
1
Step 162000
Ar 5.025873e-01 0.000000e+00 0.000000e+00
1
Step 163000
Ar 5.513773e-01 0.000000e+00 0.000000e+00
1
Step 164000
Ar 5.535179e-01 0.000000e+00 0.000000e+00
1
Step 165000
Ar 5.737674e-01 0.000000e+00 0.000000e+00
1
Step 166000
Ar 6.109904e-01 0.000000e+00 0.000000e+00
1
Step 167000
Ar 6.029513e-01 0.000000e+00 0.000000e+00
1
Step 168000
Ar 6.155280e-01 0.000000e+00 0.000000e+00
1
Step 169000
Ar 6.167854e-01 0.000000e+00 0.000000e+00
1
Step 170000
Ar 6.071381e-01 0.000000e+00 0.000000e+00
1
Step 171000
Ar 4.290580e-01 0.000000e+00 0.000000e+00
1
Step 172000
Ar 5.429211e-01 0.000000e+00 0.000000e+00
1
Step 173000
Ar 5.549852e-01 0.000000e+00 0.000000e+00
1
Step 174000
Ar 5.144992e-01 0.000000e+00 0.000000e+00
1
Step 175000
Ar 5.520908e-01 0.000000e+00 0.000000e+00
1
Step 176000
Ar 6.882551e-01 0.000000e+00 0.000000e+00
1
Step 177000
Ar 6.766869e-01 0.000000e+00 0.000000e+00
1
Step 178000
Ar 6.937143e-01 0.000000e+00 0.000000e+00
1
Step 179000
Ar 6.730319e-01 0.000000e+00 0.000000e+00
1
Step 180000
Ar 6.814446e-01 0.000000e+00 0.000000e+00
1
Step 181000
Ar 6.997428e-01 0.000000e+00 0.000000e+00
1
Step 182000
Ar 6.988311e-01 0.000000e+00 0.000000e+00
1
Step 183000
Ar 6.957796e-01 0.000000e+00 0.000000e+00
1
Step 184000
Ar 6.968395e-01 0.000000e+00 0.000000e+00
1
Step 185000
Ar 6.940988e-01 0.000000e+00 0.000000e+00
1
Step 186000
Ar 7.896988e-01 0.000000e+00 0.000000e+00
1
Step 187000
Ar 7.682807e-01 0.000000e+00 0.000000e+00
1
Step 188000
Ar 7.850823e-01 0.000000e+00 0.000000e+00
1
Step 189000
Ar 7.803004e-01 0.000000e+00 0.000000e+00
1
Step 190000
Ar 7.627960e-01 0.000000e+00 0.000000e+00
1
Step 191000
Ar 7.778113e-01 0.000000e+00 0.000000e+00
1
Step 192000
Ar 7.874004e-01 0.000000e+00 0.000000e+00
1
Step 193000
Ar 7.836865e-01 0.000000e+00 0.000000e+00
1
Step 194000
Ar 7.973952e-01 0.000000e+00 0.000000e+00
1
Step 195000
Ar 7.887434e-01 0.000000e+00 0.000000e+00
1
Step 196000
Ar 9.243404e-01 0.000000e+00 0.000000e+00
1
Step 197000
Ar 9.698213e-01 0.000000e+00 0.000000e+00
1
Step 198000
Ar 9.629216e-01 0.000000e+00 0.000000e+00
1
Step 199000
Ar 9.097471e-01 0.000000e+00 0.000000e+00
1
Step 200000
Ar 9.625158e-01 0.000000e+00 0.000000e+00
1
Step 201000
Ar 8.568439e-01 0.000000e+00 0.000000e+00
1
Step 202000
Ar 8.689428e-01 0.000000e+00 0.000000e+00
1
Step 203000
Ar 9.491172e-01 0.000000e+00 0.000000e+00
1
Step 204000
Ar 9.080522e-01 0.000000e+00 0.000000e+00
1
Step 205000
Ar 8.704799e-01 0.000000e+00 0.000000e+00
1
Step 206000
Ar 1.035441e+00 0.000000e+00 0.000000e+00
1
Step 207000
Ar 9.930116e-01 0.000000e+00 0.000000e+00
1
Step 208000
Ar 1.040344e+00 0.000000e+00 0.000000e+00
1
Step 209000
Ar 1.037380e+00 0.000000e+00 0.000000e+00
1
Step 210000
Ar 1.019929e+00 0.000000e+00 0.000000e+00
1
Step 211000
Ar 1.089444e+00 0.000000e+00 0.000000e+00
1
Step 212000
Ar 1.162598e+00 0.000000e+00 0.000000e+00
1
Step 213000
Ar 1.131176e+00 0.000000e+00 0.000000e+00
1
Step 214000
Ar 1.095860e+00 0.000000e+00 0.000000e+00
1
Step 215000
Ar 1.095082e+00 0.000000e+00 0.000000e+00
1
Step 216000
Ar 1.120333e+00 0.000000e+00 0.000000e+00
1
Step 217000
Ar 1.116008e+00 0.000000e+00 0.000000e+00
1
Step 218000
Ar 1.112446e+00 0.000000e+00 0.000000e+00
1
Step 219000
Ar 1.154684e+00 0.000000e+00 0.000000e+00
1
Step 220000
Ar 1.170920e+00 0.000000e+00 0.000000e+00
1
Step 221000
Ar 9.325835e-01 0.000000e+00 0.000000e+00
1
Step 222000
Ar 9.396848e-01 0.000000e+00 0.000000e+00
1
Step 223000
Ar 8.952614e-01 0.000000e+00 0.000000e+00
1
Step 224000
Ar 8.910064e-01 0.000000e+00 0.000000e+00
1
Step 225000
Ar 9.212847e-01 0.000000e+00 0.000000e+00
1
Step 226000
Ar 8.983070e-01 0.000000e+00 0.000000e+00
1
Step 227000
Ar 8.828431e-01 0.000000e+00 0.000000e+00
1
Step 228000
Ar 8.806102e-01 0.000000e+00 0.000000e+00
1
Step 229000
Ar 9.075016e-01 0.000000e+00 0.000000e+00
1
Step 230000
Ar 9.067980e-01 0.000000e+00 0.000000e+00
1
Step 231000
Ar 9.431811e-01 0.000000e+00 0.000000e+00
1
Step 232000
Ar 9.456618e-01 0.000000e+00 0.000000e+00
1
Step 233000
Ar 9.349121e-01 0.000000e+00 0.000000e+00
1
Step 234000
Ar 9.349101e-01 0.000000e+00 0.000000e+00
1
Step 235000
Ar 9.344991e-01 0.000000e+00 0.000000e+00
1
Step 236000
Ar 9.859319e-01 0.000000e+00 0.000000e+00
1
Step 237000
Ar 9.984748e-01 0.000000e+00 0.000000e+00
1
Step 238000
Ar 9.783764e-01 0.000000e+00 0.000000e+00
1
Step 239000
Ar 1.006144e+00 0.000000e+00 0.000000e+00
1
Step 240000
Ar 9.733037e-01 0.000000e+00 0.000000e+00
1
Step 241000
Ar 1.003495e+00 0.000000e+00 0.000000e+00
1
Step 242000
Ar 9.925626e-01 0.000000e+00 0.000000e+00
1
Step 243000
Ar 9.902052e-01 0.000000e+00 0.000000e+00
1
Step 244000
Ar 9.929893e-01 0.000000e+00 0.000000e+00
1
Step 245000
Ar 9.943527e-01 0.000000e+00 0.000000e+00
1
Step 246000
Ar 9.836852e-01 0.000000e+00 0.000000e+00
1
Step 247000
Ar 9.838374e-01 0.000000e+00 0.000000e+00
1
Step 248000
Ar 9.843581e-01 0.000000e+00 0.000000e+00
1
Step 249000
Ar 9.808246e-01 0.000000e+00 0.000000e+00
1
Step 250000
Ar 9.821486e-01 0.000000e+00 0.000000e+00
1
Step 251000
Ar 1.044761e+00 0.000000e+00 0.000000e+00
1
Step 252000
Ar 1.044078e+00 0.000000e+00 0.000000e+00
1
Step 253000
Ar 1.031027e+00 0.000000e+00 0.000000e+00
1
Step 254000
Ar 1.037882e+00 0.000000e+00 0.000000e+00
1
Step 255000
Ar 1.055725e+00 0.000000e+00 0.000000e+00
1
Step 256000
Ar 1.007909e+00 0.000000e+00 0.000000e+00
1
Step 257000
Ar 1.004364e+00 0.000000e+00 0.000000e+00
1
Step 258000
Ar 1.011352e+00 0.000000e+00 0.000000e+00
1
Step 259000
Ar 1.007175e+00 0.000000e+00 0.000000e+00
1
Step 260000
Ar 1.002029e+00 0.000000e+00 0.000000e+00
1
Step 261000
Ar 1.081105e+00 0.000000e+00 0.000000e+00
1
Step 262000
Ar 1.082124e+00 0.000000e+00 0.000000e+00
1
Step 263000
Ar 1.085002e+00 0.000000e+00 0.000000e+00
1
Step 264000
Ar 1.081127e+00 0.000000e+00 0.000000e+00
1
Step 265000
Ar 1.077826e+00 0.000000e+00 0.000000e+00
1
Step 266000
Ar 1.191571e+00 0.000000e+00 0.000000e+00
1
Step 267000
Ar 1.254220e+00 0.000000e+00 0.000000e+00
1
Step 268000
Ar 1.258316e+00 0.000000e+00 0.000000e+00
1
Step 269000
Ar 1.342489e+00 0.000000e+00 0.000000e+00
1
Step 270000
Ar 1.190681e+00 0.000000e+00 0.000000e+00
1
Step 271000
Ar 1.123129e+00 0.000000e+00 0.000000e+00
1
Step 272000
Ar 1.127477e+00 0.000000e+00 0.000000e+00
1
Step 273000
Ar 1.159310e+00 0.000000e+00 0.000000e+00
1
Step 274000
Ar 1.161207e+00 0.000000e+00 0.000000e+00
1
Step 275000
Ar 1.160542e+00 0.000000e+00 0.000000e+00
1
Step 276000
Ar 1.119543e+00 0.000000e+00 0.000000e+00
1
Step 277000
Ar 1.129294e+00 0.000000e+00 0.000000e+00
1
Step 278000
Ar 1.120857e+00 0.000000e+00 0.000000e+00
1
Step 279000
Ar 1.123509e+00 0.000000e+00 0.000000e+00
1
Step 280000
Ar 1.140378e+00 0.000000e+00 0.000000e+00
1
Step 281000
Ar 1.012333e+00 0.000000e+00 0.000000e+00
1
Step 282000
Ar 1.014550e+00 0.000000e+00 0.000000e+00
1
Step 283000
Ar 1.039192e+00 0.000000e+00 0.000000e+00
1
Step 284000
Ar 1.038815e+00 0.000000e+00 0.000000e+00
1
Step 285000
Ar 1.035094e+00 0.000000e+00 0.000000e+00
1
Step 286000
Ar 1.116725e+00 0.000000e+00 0.000000e+00
1
Step 287000
Ar 1.105149e+00 0.000000e+00 0.000000e+00
1
Step 288000
Ar 1.114154e+00 0.000000e+00 0.000000e+00
1
Step 289000
Ar 1.121392e+00 0.000000e+00 0.000000e+00
1
Step 290000
Ar 1.110062e+00 0.000000e+00 0.000000e+00
1
Step 291000
Ar 1.154039e+00 0.000000e+00 0.000000e+00
1
Step 292000
Ar 1.152745e+00 0.000000e+00 0.000000e+00
1
Step 293000
Ar 1.152828e+00 0.000000e+00 0.000000e+00
1
Step 294000
Ar 1.149779e+00 0.000000e+00 0.000000e+00
1
Step 295000
Ar 1.150563e+00 0.000000e+00 0.000000e+00
1
Step 296000
Ar 1.209634e+00 0.000000e+00 0.000000e+00
1
Step 297000
Ar 1.214547e+00 0.000000e+00 0.000000e+00
1
Step 298000
Ar 1.304844e+00 0.000000e+00 0.000000e+00
1
Step 299000
Ar 1.219064e+00 0.000000e+00 0.000000e+00
1
Step 300000
Ar 1.225460e+00 0.000000e+00 0.000000e+00
1
Step 301000
Ar 1.205756e+00 0.000000e+00 0.000000e+00
1
Step 302000
Ar 1.209837e+00 0.000000e+00 0.000000e+00
1
Step 303000
Ar 1.210365e+00 0.000000e+00 0.000000e+00
1
Step 304000
Ar 1.211385e+00 0.000000e+00 0.000000e+00
1
Step 305000
Ar 1.209205e+00 0.000000e+00 0.000000e+00
1
Step 306000
Ar 1.276018e+00 0.000000e+00 0.000000e+00
1
Step 307000
Ar 1.240089e+00 0.000000e+00 0.000000e+00
1
Step 308000
Ar 1.268225e+00 0.000000e+00 0.000000e+00
1
Step 309000
Ar 1.344072e+00 0.000000e+00 0.000000e+00
1
Step 310000
Ar 1.248673e+00 0.000000e+00 0.000000e+00
1
Step 311000
Ar 1.281593e+00 0.000000e+00 0.000000e+00
1
Step 312000
Ar 1.272363e+00 0.000000e+00 0.000000e+00
1
Step 313000
Ar 1.328819e+00 0.000000e+00 0.000000e+00
1
Step 314000
Ar 1.256794e+00 0.000000e+00 0.000000e+00
1
Step 315000
Ar 1.263907e+00 0.000000e+00 0.000000e+00
1
Step 316000
Ar 1.201127e+00 0.000000e+00 0.000000e+00
1
Step 317000
Ar 1.202191e+00 0.000000e+00 0.000000e+00
1
Step 318000
Ar 1.350094e+00 0.000000e+00 0.000000e+00
1
Step 319000
Ar 1.338468e+00 0.000000e+00 0.000000e+00
1
Step 320000
Ar 1.284131e+00 0.000000e+00 0.000000e+00
1
Step 321000
Ar 1.123725e+00 0.000000e+00 0.000000e+00
1
Step 322000
Ar 1.125208e+00 0.000000e+00 0.000000e+00
1
Step 323000
Ar 1.119896e+00 0.000000e+00 0.000000e+00
1
Step 324000
Ar 1.131115e+00 0.000000e+00 0.000000e+00
1
Step 325000
Ar 1.127830e+00 0.000000e+00 0.000000e+00
1
Step 326000
Ar 5.938226e-01 0.000000e+00 0.000000e+00
1
Step 327000
Ar 5.856668e-01 0.000000e+00 0.000000e+00
1
Step 328000
Ar 5.897892e-01 0.000000e+00 0.000000e+00
1
Step 329000
Ar 5.834039e-01 0.000000e+00 0.000000e+00
1
Step 330000
Ar 5.854041e-01 0.000000e+00 0.000000e+00
1
Step 331000
Ar 4.502136e-01 0.000000e+00 0.000000e+00
1
Step 332000
Ar 5.290611e-01 0.000000e+00 0.000000e+00
1
Step 333000
Ar 3.912374e-01 0.000000e+00 0.000000e+00
1
Step 334000
Ar 4.908469e-01 0.000000e+00 0.000000e+00
1
Step 335000
Ar 1.830475e-01 0.000000e+00 0.000000e+00
1
Step 336000
Ar -8.700257e-01 0.000000e+00 0.000000e+00
1
Step 337000
Ar -1.036835e+00 0.000000e+00 0.000000e+00
1
Step 338000
Ar -1.071963e+00 0.000000e+00 0.000000e+00
1
Step 339000
Ar -1.169342e+00 0.000000e+00 0.000000e+00
1
Step 340000
Ar -9.443028e-01 0.000000e+00 0.000000e+00
1
Step 341000
Ar -1.006816e+00 0.000000e+00 0.000000e+00
1
Step 342000
Ar -1.110155e+00 0.000000e+00 0.000000e+00
1
Step 343000
Ar -9.906216e-01 0.000000e+00 0.000000e+00
1
Step 344000
Ar -1.100536e+00 0.000000e+00 0.000000e+00
1
Step 345000
Ar -1.029637e+00 0.000000e+00 0.000000e+00
1
Step 346000
Ar -9.962539e-01 0.000000e+00 0.000000e+00
1
Step 347000
Ar -1.000674e+00 0.000000e+00 0.000000e+00
1
Step 348000
Ar -9.828771e-01 0.000000e+00 0.000000e+00
1
Step 349000
Ar -9.926127e-01 0.000000e+00 0.000000e+00
1
Step 350000
Ar -1.002171e+00 0.000000e+00 0.000000e+00
1
Step 351000
Ar -9.839731e-01 0.000000e+00 0.000000e+00
1
Step 352000
Ar -9.835136e-01 0.000000e+00 0.000000e+00
1
Step 353000
Ar -9.613990e-01 0.000000e+00 0.000000e+00
1
Step 354000
Ar -9.805248e-01 0.000000e+00 0.000000e+00
1
Step 355000
Ar -9.760186e-01 0.000000e+00 0.000000e+00
1
Step 356000
Ar -7.354152e-01 0.000000e+00 0.000000e+00
1
Step 357000
Ar -8.416910e-01 0.000000e+00 0.000000e+00
1
Step 358000
Ar -8.372662e-01 0.000000e+00 0.000000e+00
1
Step 359000
Ar -8.931423e-01 0.000000e+00 0.000000e+00
1
Step 360000
Ar -8.526102e-01 0.000000e+00 0.000000e+00
1
Step 361000
Ar -7.345172e-01 0.000000e+00 0.000000e+00
1
Step 362000
Ar -8.398347e-01 0.000000e+00 0.000000e+00
1
Step 363000
Ar -7.518405e-01 0.000000e+00 0.000000e+00
1
Step 364000
Ar -7.823572e-01 0.000000e+00 0.000000e+00
1
Step 365000
Ar -6.891022e-01 0.000000e+00 0.000000e+00
1
Step 366000
Ar -8.182157e-01 0.000000e+00 0.000000e+00
1
Step 367000
Ar -7.799431e-01 0.000000e+00 0.000000e+00
1
Step 368000
Ar -8.321052e-01 0.000000e+00 0.000000e+00
1
Step 369000
Ar -8.346655e-01 0.000000e+00 0.000000e+00
1
Step 370000
Ar -8.337622e-01 0.000000e+00 0.000000e+00
1
Step 371000
Ar -7.582576e-01 0.000000e+00 0.000000e+00
1
Step 372000
Ar -8.034650e-01 0.000000e+00 0.000000e+00
1
Step 373000
Ar -7.350281e-01 0.000000e+00 0.000000e+00
1
Step 374000
Ar -7.514223e-01 0.000000e+00 0.000000e+00
1
Step 375000
Ar -7.780010e-01 0.000000e+00 0.000000e+00
1
Step 376000
Ar -7.557258e-01 0.000000e+00 0.000000e+00
1
Step 377000
Ar -7.473876e-01 0.000000e+00 0.000000e+00
1
Step 378000
Ar -7.402032e-01 0.000000e+00 0.000000e+00
1
Step 379000
Ar -7.366334e-01 0.000000e+00 0.000000e+00
1
Step 380000
Ar -7.211501e-01 0.000000e+00 0.000000e+00
1
Step 381000
Ar -8.158414e-01 0.000000e+00 0.000000e+00
1
Step 382000
Ar -8.034205e-01 0.000000e+00 0.000000e+00
1
Step 383000
Ar -8.043967e-01 0.000000e+00 0.000000e+00
1
Step 384000
Ar -8.070042e-01 0.000000e+00 0.000000e+00
1
Step 385000
Ar -8.062249e-01 0.000000e+00 0.000000e+00
1
Step 386000
Ar -8.250897e-01 0.000000e+00 0.000000e+00
1
Step 387000
Ar -8.199185e-01 0.000000e+00 0.000000e+00
1
Step 388000
Ar -8.213826e-01 0.000000e+00 0.000000e+00
1
Step 389000
Ar -8.231347e-01 0.000000e+00 0.000000e+00
1
Step 390000
Ar -8.200915e-01 0.000000e+00 0.000000e+00
1
Step 391000
Ar -1.136530e+00 0.000000e+00 0.000000e+00
1
Step 392000
Ar -1.206619e+00 0.000000e+00 0.000000e+00
1
Step 393000
Ar -1.047680e+00 0.000000e+00 0.000000e+00
1
Step 394000
Ar -1.105630e+00 0.000000e+00 0.000000e+00
1
Step 395000
Ar -1.112838e+00 0.000000e+00 0.000000e+00
1
Step 396000
Ar -1.124685e+00 0.000000e+00 0.000000e+00
1
Step 397000
Ar -1.127851e+00 0.000000e+00 0.000000e+00
1
Step 398000
Ar -1.165362e+00 0.000000e+00 0.000000e+00
1
Step 399000
Ar -1.125126e+00 0.000000e+00 0.000000e+00
1
Step 400000
Ar -1.169694e+00 0.000000e+00 0.000000e+00
1
Step 401000
Ar -1.193721e+00 0.000000e+00 0.000000e+00
1
Step 402000
Ar -1.212043e+00 0.000000e+00 0.000000e+00
1
Step 403000
Ar -1.210121e+00 0.000000e+00 0.000000e+00
1
Step 404000
Ar -1.258296e+00 0.000000e+00 0.000000e+00
1
Step 405000
Ar -1.185780e+00 0.000000e+00 0.000000e+00
1
Step 406000
Ar -1.226168e+00 0.000000e+00 0.000000e+00
1
Step 407000
Ar -1.271045e+00 0.000000e+00 0.000000e+00
1
Step 408000
Ar -1.226308e+00 0.000000e+00 0.000000e+00
1
Step 409000
Ar -1.252453e+00 0.000000e+00 0.000000e+00
1
Step 410000
Ar -1.243787e+00 0.000000e+00 0.000000e+00
1
Step 411000
Ar -1.067351e+00 0.000000e+00 0.000000e+00
1
Step 412000
Ar -1.094667e+00 0.000000e+00 0.000000e+00
1
Step 413000
Ar -1.064109e+00 0.000000e+00 0.000000e+00
1
Step 414000
Ar -1.073885e+00 0.000000e+00 0.000000e+00
1
Step 415000
Ar -1.067648e+00 0.000000e+00 0.000000e+00
1
Step 416000
Ar -9.192656e-01 0.000000e+00 0.000000e+00
1
Step 417000
Ar -9.238392e-01 0.000000e+00 0.000000e+00
1
Step 418000
Ar -8.864875e-01 0.000000e+00 0.000000e+00
1
Step 419000
Ar -8.811552e-01 0.000000e+00 0.000000e+00
1
Step 420000
Ar -8.840791e-01 0.000000e+00 0.000000e+00
1
Step 421000
Ar -9.202219e-01 0.000000e+00 0.000000e+00
1
Step 422000
Ar -8.964214e-01 0.000000e+00 0.000000e+00
1
Step 423000
Ar -9.284424e-01 0.000000e+00 0.000000e+00
1
Step 424000
Ar -9.280611e-01 0.000000e+00 0.000000e+00
1
Step 425000
Ar -9.220994e-01 0.000000e+00 0.000000e+00
1
Step 426000
Ar -1.133877e+00 0.000000e+00 0.000000e+00
1
Step 427000
Ar -1.133709e+00 0.000000e+00 0.000000e+00
1
Step 428000
Ar -1.134239e+00 0.000000e+00 0.000000e+00
1
Step 429000
Ar -1.140655e+00 0.000000e+00 0.000000e+00
1
Step 430000
Ar -1.154119e+00 0.000000e+00 0.000000e+00
1
Step 431000
Ar -1.137709e+00 0.000000e+00 0.000000e+00
1
Step 432000
Ar -1.140059e+00 0.000000e+00 0.000000e+00
1
Step 433000
Ar -1.138564e+00 0.000000e+00 0.000000e+00
1
Step 434000
Ar -1.143403e+00 0.000000e+00 0.000000e+00
1
Step 435000
Ar -1.132804e+00 0.000000e+00 0.000000e+00
1
Step 436000
Ar -1.204108e+00 0.000000e+00 0.000000e+00
1
Step 437000
Ar -1.207341e+00 0.000000e+00 0.000000e+00
1
Step 438000
Ar -1.194229e+00 0.000000e+00 0.000000e+00
1
Step 439000
Ar -1.208635e+00 0.000000e+00 0.000000e+00
1
Step 440000
Ar -1.203681e+00 0.000000e+00 0.000000e+00
1
Step 441000
Ar -4.020231e-01 0.000000e+00 0.000000e+00
1
Step 442000
Ar -6.721634e-01 0.000000e+00 0.000000e+00
1
Step 443000
Ar -6.324325e-01 0.000000e+00 0.000000e+00
1
Step 444000
Ar -6.497099e-01 0.000000e+00 0.000000e+00
1
Step 445000
Ar -4.770968e-01 0.000000e+00 0.000000e+00
1
Step 446000
Ar -6.229417e-01 0.000000e+00 0.000000e+00
1
Step 447000
Ar -5.526016e-01 0.000000e+00 0.000000e+00
1
Step 448000
Ar -6.079209e-01 0.000000e+00 0.000000e+00
1
Step 449000
Ar -5.122325e-01 0.000000e+00 0.000000e+00
1
Step 450000
Ar -6.209883e-01 0.000000e+00 0.000000e+00
1
Step 451000
Ar -6.038300e-01 0.000000e+00 0.000000e+00
1
Step 452000
Ar -6.089077e-01 0.000000e+00 0.000000e+00
1
Step 453000
Ar -6.025598e-01 0.000000e+00 0.000000e+00
1
Step 454000
Ar -5.778765e-01 0.000000e+00 0.000000e+00
1
Step 455000
Ar -5.540347e-01 0.000000e+00 0.000000e+00
1
Step 456000
Ar -8.962643e-01 0.000000e+00 0.000000e+00
1
Step 457000
Ar -9.040405e-01 0.000000e+00 0.000000e+00
1
Step 458000
Ar -9.044242e-01 0.000000e+00 0.000000e+00
1
Step 459000
Ar -8.967321e-01 0.000000e+00 0.000000e+00
1
Step 460000
Ar -9.021625e-01 0.000000e+00 0.000000e+00
1
Step 461000
Ar -1.101058e+00 0.000000e+00 0.000000e+00
1
Step 462000
Ar -1.091612e+00 0.000000e+00 0.000000e+00
1
Step 463000
Ar -1.087189e+00 0.000000e+00 0.000000e+00
1
Step 464000
Ar -1.094497e+00 0.000000e+00 0.000000e+00
1
Step 465000
Ar -1.088697e+00 0.000000e+00 0.000000e+00
1
Step 466000
Ar -1.102873e+00 0.000000e+00 0.000000e+00
1
Step 467000
Ar -1.101753e+00 0.000000e+00 0.000000e+00
1
Step 468000
Ar -1.100247e+00 0.000000e+00 0.000000e+00
1
Step 469000
Ar -1.099644e+00 0.000000e+00 0.000000e+00
1
Step 470000
Ar -1.103382e+00 0.000000e+00 0.000000e+00
1
Step 471000
Ar -1.078987e+00 0.000000e+00 0.000000e+00
1
Step 472000
Ar -1.079905e+00 0.000000e+00 0.000000e+00
1
Step 473000
Ar -1.075726e+00 0.000000e+00 0.000000e+00
1
Step 474000
Ar -1.076527e+00 0.000000e+00 0.000000e+00
1
Step 475000
Ar -1.052499e+00 0.000000e+00 0.000000e+00
1
Step 476000
Ar -9.639586e-01 0.000000e+00 0.000000e+00
1
Step 477000
Ar -9.592873e-01 0.000000e+00 0.000000e+00
1
Step 478000
Ar -9.593375e-01 0.000000e+00 0.000000e+00
1
Step 479000
Ar -9.625884e-01 0.000000e+00 0.000000e+00
1
Step 480000
Ar -9.585100e-01 0.000000e+00 0.000000e+00
1
Step 481000
Ar -1.040831e+00 0.000000e+00 0.000000e+00
1
Step 482000
Ar -1.043143e+00 0.000000e+00 0.000000e+00
1
Step 483000
Ar -1.038442e+00 0.000000e+00 0.000000e+00
1
Step 484000
Ar -1.041678e+00 0.000000e+00 0.000000e+00
1
Step 485000
Ar -1.039325e+00 0.000000e+00 0.000000e+00
1
Step 486000
Ar -1.078523e+00 0.000000e+00 0.000000e+00
1
Step 487000
Ar -1.078884e+00 0.000000e+00 0.000000e+00
1
Step 488000
Ar -1.081692e+00 0.000000e+00 0.000000e+00
1
Step 489000
Ar -1.076652e+00 0.000000e+00 0.000000e+00
1
Step 490000
Ar -1.081798e+00 0.000000e+00 0.000000e+00
1
Step 491000
Ar -7.647385e-01 0.000000e+00 0.000000e+00
1
Step 492000
Ar -7.547326e-01 0.000000e+00 0.000000e+00
1
Step 493000
Ar -7.415029e-01 0.000000e+00 0.000000e+00
1
Step 494000
Ar -7.433284e-01 0.000000e+00 0.000000e+00
1
Step 495000
Ar -7.545567e-01 0.000000e+00 0.000000e+00
1
Step 496000
Ar -7.622397e-01 0.000000e+00 0.000000e+00
1
Step 497000
Ar -7.642595e-01 0.000000e+00 0.000000e+00
1
Step 498000
Ar -7.631579e-01 0.000000e+00 0.000000e+00
1
Step 499000
Ar -7.676354e-01 0.000000e+00 0.000000e+00
1
Step 500000
Ar -7.690202e-01 0.000000e+00 0.000000e+00
1
Step 501000
Ar -7.416468e-01 0.000000e+00 0.000000e+00
1
Step 502000
Ar -7.400705e-01 0.000000e+00 0.000000e+00
1
Step 503000
Ar -7.358681e-01 0.000000e+00 0.000000e+00
1
Step 504000
Ar -7.337084e-01 0.000000e+00 0.000000e+00
1
Step 505000
Ar -7.354923e-01 0.000000e+00 0.000000e+00
1
Step 506000
Ar -7.447491e-01 0.000000e+00 0.000000e+00
1
Step 507000
Ar -7.469130e-01 0.000000e+00 0.000000e+00
1
Step 508000
Ar -6.557214e-01 0.000000e+00 0.000000e+00
1
Step 509000
Ar -6.805015e-01 0.000000e+00 0.000000e+00
1
Step 510000
Ar -6.751389e-01 0.000000e+00 0.000000e+00
1
Step 511000
Ar -6.639141e-01 0.000000e+00 0.000000e+00
1
Step 512000
Ar -6.559562e-01 0.000000e+00 0.000000e+00
1
Step 513000
Ar -6.394460e-01 0.000000e+00 0.000000e+00
1
Step 514000
Ar -6.647764e-01 0.000000e+00 0.000000e+00
1
Step 515000
Ar -6.439113e-01 0.000000e+00 0.000000e+00
1
Step 516000
Ar -6.046035e-01 0.000000e+00 0.000000e+00
1
Step 517000
Ar -5.767356e-01 0.000000e+00 0.000000e+00
1
Step 518000
Ar -5.897918e-01 0.000000e+00 0.000000e+00
1
Step 519000
Ar -5.960389e-01 0.000000e+00 0.000000e+00
1
Step 520000
Ar -5.976037e-01 0.000000e+00 0.000000e+00
1
Step 521000
Ar -6.105159e-01 0.000000e+00 0.000000e+00
1
Step 522000
Ar -6.090836e-01 0.000000e+00 0.000000e+00
1
Step 523000
Ar -6.047510e-01 0.000000e+00 0.000000e+00
1
Step 524000
Ar -6.070730e-01 0.000000e+00 0.000000e+00
1
Step 525000
Ar -6.092630e-01 0.000000e+00 0.000000e+00
1
Step 526000
Ar -6.991895e-01 0.000000e+00 0.000000e+00
1
Step 527000
Ar -7.081677e-01 0.000000e+00 0.000000e+00
1
Step 528000
Ar -6.973412e-01 0.000000e+00 0.000000e+00
1
Step 529000
Ar -7.031191e-01 0.000000e+00 0.000000e+00
1
Step 530000
Ar -7.051006e-01 0.000000e+00 0.000000e+00
1
Step 531000
Ar -6.336724e-01 0.000000e+00 0.000000e+00
1
Step 532000
Ar -6.357262e-01 0.000000e+00 0.000000e+00
1
Step 533000
Ar -6.319848e-01 0.000000e+00 0.000000e+00
1
Step 534000
Ar -6.311489e-01 0.000000e+00 0.000000e+00
1
Step 535000
Ar -6.324005e-01 0.000000e+00 0.000000e+00
1
Step 536000
Ar -6.483554e-01 0.000000e+00 0.000000e+00
1
Step 537000
Ar -6.579005e-01 0.000000e+00 0.000000e+00
1
Step 538000
Ar -6.619395e-01 0.000000e+00 0.000000e+00
1
Step 539000
Ar -6.644244e-01 0.000000e+00 0.000000e+00
1
Step 540000
Ar -6.576944e-01 0.000000e+00 0.000000e+00
1
Step 541000
Ar -8.628709e-01 0.000000e+00 0.000000e+00
1
Step 542000
Ar -8.646769e-01 0.000000e+00 0.000000e+00
1
Step 543000
Ar -8.650929e-01 0.000000e+00 0.000000e+00
1
Step 544000
Ar -8.665911e-01 0.000000e+00 0.000000e+00
1
Step 545000
Ar -8.670266e-01 0.000000e+00 0.000000e+00
1
Step 546000
Ar -9.100628e-01 0.000000e+00 0.000000e+00
1
Step 547000
Ar -9.094053e-01 0.000000e+00 0.000000e+00
1
Step 548000
Ar -9.107577e-01 0.000000e+00 0.000000e+00
1
Step 549000
Ar -9.125744e-01 0.000000e+00 0.000000e+00
1
Step 550000
Ar -9.087575e-01 0.000000e+00 0.000000e+00
1
Step 551000
Ar -1.021858e+00 0.000000e+00 0.000000e+00
1
Step 552000
Ar -1.012774e+00 0.000000e+00 0.000000e+00
1
Step 553000
Ar -1.013304e+00 0.000000e+00 0.000000e+00
1
Step 554000
Ar -1.015965e+00 0.000000e+00 0.000000e+00
1
Step 555000
Ar -1.016059e+00 0.000000e+00 0.000000e+00
1
Step 556000
Ar -4.671777e-01 0.000000e+00 0.000000e+00
1
Step 557000
Ar -4.326786e-01 0.000000e+00 0.000000e+00
1
Step 558000
Ar 1.106574e-01 0.000000e+00 0.000000e+00
1
Step 559000
Ar -4.346598e-01 0.000000e+00 0.000000e+00
1
Step 560000
Ar -3.402245e-01 0.000000e+00 0.000000e+00
1
Step 561000
Ar -1.137666e-01 0.000000e+00 0.000000e+00
1
Step 562000
Ar -5.034613e-02 0.000000e+00 0.000000e+00
1
Step 563000
Ar -2.770144e-01 0.000000e+00 0.000000e+00
1
Step 564000
Ar -2.950184e-01 0.000000e+00 0.000000e+00
1
Step 565000
Ar -2.197805e-01 0.000000e+00 0.000000e+00
1
Step 566000
Ar -2.994201e-01 0.000000e+00 0.000000e+00
1
Step 567000
Ar -2.469685e-01 0.000000e+00 0.000000e+00
1
Step 568000
Ar -3.154753e-01 0.000000e+00 0.000000e+00
1
Step 569000
Ar -2.464603e-01 0.000000e+00 0.000000e+00
1
Step 570000
Ar -3.178835e-01 0.000000e+00 0.000000e+00
1
Step 571000
Ar 1.359757e-01 0.000000e+00 0.000000e+00
1
Step 572000
Ar -1.673775e-01 0.000000e+00 0.000000e+00
1
Step 573000
Ar -1.733823e-01 0.000000e+00 0.000000e+00
1
Step 574000
Ar -4.461072e-02 0.000000e+00 0.000000e+00
1
Step 575000
Ar -9.782339e-03 0.000000e+00 0.000000e+00
1
Step 576000
Ar -6.788497e-02 0.000000e+00 0.000000e+00
1
Step 577000
Ar -1.670206e-01 0.000000e+00 0.000000e+00
1
Step 578000
Ar -2.045397e-01 0.000000e+00 0.000000e+00
1
Step 579000
Ar -1.349227e-01 0.000000e+00 0.000000e+00
1
Step 580000
Ar -7.764637e-02 0.000000e+00 0.000000e+00
1
Step 581000
Ar -2.627541e-01 0.000000e+00 0.000000e+00
1
Step 582000
Ar -2.812119e-01 0.000000e+00 0.000000e+00
1
Step 583000
Ar -2.753573e-01 0.000000e+00 0.000000e+00
1
Step 584000
Ar -2.830935e-01 0.000000e+00 0.000000e+00
1
Step 585000
Ar -2.463244e-01 0.000000e+00 0.000000e+00
1
Step 586000
Ar -2.339645e-01 0.000000e+00 0.000000e+00
1
Step 587000
Ar -2.287933e-01 0.000000e+00 0.000000e+00
1
Step 588000
Ar -2.291517e-01 0.000000e+00 0.000000e+00
1
Step 589000
Ar -2.288869e-01 0.000000e+00 0.000000e+00
1
Step 590000
Ar -2.324377e-01 0.000000e+00 0.000000e+00
1
Step 591000
Ar -1.993523e-01 0.000000e+00 0.000000e+00
1
Step 592000
Ar -1.098930e-01 0.000000e+00 0.000000e+00
1
Step 593000
Ar -1.372081e-01 0.000000e+00 0.000000e+00
1
Step 594000
Ar -1.556623e-01 0.000000e+00 0.000000e+00
1
Step 595000
Ar -1.558139e-01 0.000000e+00 0.000000e+00
1
Step 596000
Ar -2.751243e-01 0.000000e+00 0.000000e+00
1
Step 597000
Ar -2.924831e-01 0.000000e+00 0.000000e+00
1
Step 598000
Ar -2.663789e-01 0.000000e+00 0.000000e+00
1
Step 599000
Ar -2.991673e-01 0.000000e+00 0.000000e+00
1
Step 600000
Ar -3.072140e-01 0.000000e+00 0.000000e+00
1
Step 601000
Ar -2.563425e-01 0.000000e+00 0.000000e+00
1
Step 602000
Ar -2.864474e-01 0.000000e+00 0.000000e+00
1
Step 603000
Ar -2.852182e-01 0.000000e+00 0.000000e+00
1
Step 604000
Ar -2.944345e-01 0.000000e+00 0.000000e+00
1
Step 605000
Ar -2.737436e-01 0.000000e+00 0.000000e+00
1
Step 606000
Ar -2.069661e-01 0.000000e+00 0.000000e+00
1
Step 607000
Ar -1.872383e-01 0.000000e+00 0.000000e+00
1
Step 608000
Ar -1.752602e-01 0.000000e+00 0.000000e+00
1
Step 609000
Ar -1.775844e-01 0.000000e+00 0.000000e+00
1
Step 610000
Ar -1.813884e-01 0.000000e+00 0.000000e+00
1
Step 611000
Ar -1.707461e-01 0.000000e+00 0.000000e+00
1
Step 612000
Ar -1.687725e-01 0.000000e+00 0.000000e+00
1
Step 613000
Ar -1.673180e-01 0.000000e+00 0.000000e+00
1
Step 614000
Ar -1.773180e-01 0.000000e+00 0.000000e+00
1
Step 615000
Ar -1.662294e-01 0.000000e+00 0.000000e+00
1
Step 616000
Ar -1.331187e-01 0.000000e+00 0.000000e+00
1
Step 617000
Ar -1.085222e-01 0.000000e+00 0.000000e+00
1
Step 618000
Ar -9.205014e-02 0.000000e+00 0.000000e+00
1
Step 619000
Ar -1.146780e-01 0.000000e+00 0.000000e+00
1
Step 620000
Ar -1.070386e-01 0.000000e+00 0.000000e+00
1
Step 621000
Ar 3.233505e-01 0.000000e+00 0.000000e+00
1
Step 622000
Ar 5.291526e-01 0.000000e+00 0.000000e+00
1
Step 623000
Ar 4.937529e-01 0.000000e+00 0.000000e+00
1
Step 624000
Ar 5.048176e-01 0.000000e+00 0.000000e+00
1
Step 625000
Ar 4.964106e-01 0.000000e+00 0.000000e+00
1
Step 626000
Ar 4.795113e-01 0.000000e+00 0.000000e+00
1
Step 627000
Ar 4.313620e-01 0.000000e+00 0.000000e+00
1
Step 628000
Ar 4.750580e-01 0.000000e+00 0.000000e+00
1
Step 629000
Ar 4.195322e-01 0.000000e+00 0.000000e+00
1
Step 630000
Ar 4.803333e-01 0.000000e+00 0.000000e+00
1
Step 631000
Ar 4.361008e-01 0.000000e+00 0.000000e+00
1
Step 632000
Ar 4.614993e-01 0.000000e+00 0.000000e+00
1
Step 633000
Ar 4.353659e-01 0.000000e+00 0.000000e+00
1
Step 634000
Ar 3.564095e-01 0.000000e+00 0.000000e+00
1
Step 635000
Ar 3.631611e-01 0.000000e+00 0.000000e+00
1
Step 636000
Ar 2.630579e-01 0.000000e+00 0.000000e+00
1
Step 637000
Ar 2.539959e-01 0.000000e+00 0.000000e+00
1
Step 638000
Ar 3.278328e-01 0.000000e+00 0.000000e+00
1
Step 639000
Ar 2.586755e-01 0.000000e+00 0.000000e+00
1
Step 640000
Ar 2.729707e-01 0.000000e+00 0.000000e+00
1
Step 641000
Ar 1.621161e-01 0.000000e+00 0.000000e+00
1
Step 642000
Ar 5.402174e-03 0.000000e+00 0.000000e+00
1
Step 643000
Ar 4.407323e-02 0.000000e+00 0.000000e+00
1
Step 644000
Ar 3.654677e-02 0.000000e+00 0.000000e+00
1
Step 645000
Ar 8.592103e-02 0.000000e+00 0.000000e+00
1
Step 646000
Ar 3.765072e-02 0.000000e+00 0.000000e+00
1
Step 647000
Ar 6.611007e-02 0.000000e+00 0.000000e+00
1
Step 648000
Ar 3.647661e-02 0.000000e+00 0.000000e+00
1
Step 649000
Ar 3.860236e-02 0.000000e+00 0.000000e+00
1
Step 650000