1
Step 120000
Ar 9.900595e-01 0.000000e+00 0.000000e+00
1
Step 121000
Ar 9.919690e-01 0.000000e+00 0.000000e+00
1
Step 122000
Ar 9.895738e-01 0.000000e+00 0.000000e+00
1
Step 123000
Ar 1.009786e+00 0.000000e+00 0.000000e+00
1
Step 124000
Ar 9.994397e-01 0.000000e+00 0.000000e+00
1
Step 125000
Ar 1.003080e+00 0.000000e+00 0.000000e+00
1
Step 126000
Ar 1.016136e+00 0.000000e+00 0.000000e+00
1
Step 127000
Ar 1.025192e+00 0.000000e+00 0.000000e+00
1
Step 128000
Ar 1.023696e+00 0.000000e+00 0.000000e+00
1
Step 129000
Ar 1.020022e+00 0.000000e+00 0.000000e+00
1
Step 130000
Ar 1.016630e+00 0.000000e+00 0.000000e+00
1
Step 131000
Ar 9.905113e-01 0.000000e+00 0.000000e+00
1
Step 132000
Ar 9.858148e-01 0.000000e+00 0.000000e+00
1
Step 133000
Ar 9.934980e-01 0.000000e+00 0.000000e+00
1
Step 134000
Ar 9.864415e-01 0.000000e+00 0.000000e+00
1
Step 135000
Ar 9.865253e-01 0.000000e+00 0.000000e+00
1
Step 136000
Ar 1.027657e+00 0.000000e+00 0.000000e+00
1
Step 137000
Ar 1.039581e+00 0.000000e+00 0.000000e+00
1
Step 138000
Ar 1.026372e+00 0.000000e+00 0.000000e+00
1
Step 139000
Ar 1.032797e+00 0.000000e+00 0.000000e+00
1
Step 140000
Ar 1.025077e+00 0.000000e+00 0.000000e+00
1
Step 141000
Ar 1.036480e+00 0.000000e+00 0.000000e+00
1
Step 142000
Ar 1.044150e+00 0.000000e+00 0.000000e+00
1
Step 143000
Ar 1.036404e+00 0.000000e+00 0.000000e+00
1
Step 144000
Ar 1.034503e+00 0.000000e+00 0.000000e+00
1
Step 145000
Ar 1.034971e+00 0.000000e+00 0.000000e+00
1
Step 146000
Ar 1.047718e+00 0.000000e+00 0.000000e+00
1
Step 147000
Ar 1.044351e+00 0.000000e+00 0.000000e+00
1
Step 148000
Ar 1.049776e+00 0.000000e+00 0.000000e+00
1
Step 149000
Ar 1.047409e+00 0.000000e+00 0.000000e+00
1
Step 150000
Ar 1.052194e+00 0.000000e+00 0.000000e+00
1
Step 151000
Ar 1.060893e+00 0.000000e+00 0.000000e+00
1
Step 152000
Ar 9.597234e-01 0.000000e+00 0.000000e+00
1
Step 153000
Ar 9.722094e-01 0.000000e+00 0.000000e+00
1
Step 154000
Ar 9.732796e-01 0.000000e+00 0.000000e+00
1
Step 155000
Ar 9.717047e-01 0.000000e+00 0.000000e+00
1
Step 156000
Ar 9.600374e-01 0.000000e+00 0.000000e+00
1
Step 157000
Ar 9.611466e-01 0.000000e+00 0.000000e+00
1
Step 158000
Ar 9.563372e-01 0.000000e+00 0.000000e+00
1
Step 159000
Ar 9.562943e-01 0.000000e+00 0.000000e+00
1
Step 160000
Ar 9.569487e-01 0.000000e+00 0.000000e+00
1
Step 161000
Ar 1.041748e+00 0.000000e+00 0.000000e+00
1
Step 162000
Ar 9.491315e-01 0.000000e+00 0.000000e+00
1
Step 163000
Ar 9.459993e-01 0.000000e+00 0.000000e+00
1
Step 164000
Ar 9.440853e-01 0.000000e+00 0.000000e+00
1
Step 165000
Ar 9.445239e-01 0.000000e+00 0.000000e+00
1
Step 166000
Ar 1.066648e+00 0.000000e+00 0.000000e+00
1
Step 167000
Ar 1.063455e+00 0.000000e+00 0.000000e+00
1
Step 168000
Ar 1.059590e+00 0.000000e+00 0.000000e+00
1
Step 169000
Ar 1.059903e+00 0.000000e+00 0.000000e+00
1
Step 170000
Ar 1.066300e+00 0.000000e+00 0.000000e+00
1
Step 171000
Ar 1.079534e+00 0.000000e+00 0.000000e+00
1
Step 172000
Ar 1.076852e+00 0.000000e+00 0.000000e+00
1
Step 173000
Ar 9.231561e-01 0.000000e+00 0.000000e+00
1
Step 174000
Ar 9.223856e-01 0.000000e+00 0.000000e+00
1
Step 175000
Ar 9.341544e-01 0.000000e+00 0.000000e+00
1
Step 176000
Ar 9.253211e-01 0.000000e+00 0.000000e+00
1
Step 177000
Ar 9.220516e-01 0.000000e+00 0.000000e+00
1
Step 178000
Ar 9.201240e-01 0.000000e+00 0.000000e+00
1
Step 179000
Ar 9.213615e-01 0.000000e+00 0.000000e+00
1
Step 180000
Ar 9.266331e-01 0.000000e+00 0.000000e+00
1
Step 181000
Ar 9.848107e-01 0.000000e+00 0.000000e+00
1
Step 182000
Ar 9.156848e-01 0.000000e+00 0.000000e+00
1
Step 183000
Ar 9.086250e-01 0.000000e+00 0.000000e+00
1
Step 184000
Ar 9.154728e-01 0.000000e+00 0.000000e+00
1
Step 185000
Ar 9.178477e-01 0.000000e+00 0.000000e+00
1
Step 186000
Ar 1.043661e+00 0.000000e+00 0.000000e+00
1
Step 187000
Ar 9.761902e-01 0.000000e+00 0.000000e+00
1
Step 188000
Ar 1.128826e+00 0.000000e+00 0.000000e+00
1
Step 189000
Ar 1.040249e+00 0.000000e+00 0.000000e+00
1
Step 190000
Ar 9.769266e-01 0.000000e+00 0.000000e+00
1
Step 191000
Ar 9.924020e-01 0.000000e+00 0.000000e+00
1
Step 192000
Ar 7.906799e-01 0.000000e+00 0.000000e+00
1
Step 193000
Ar 7.975632e-01 0.000000e+00 0.000000e+00
1
Step 194000
Ar 1.049155e+00 0.000000e+00 0.000000e+00
1
Step 195000
Ar 9.044715e-01 0.000000e+00 0.000000e+00
1
Step 196000
Ar 1.052008e+00 0.000000e+00 0.000000e+00
1
Step 197000
Ar 8.938875e-01 0.000000e+00 0.000000e+00
1
Step 198000
Ar 8.951403e-01 0.000000e+00 0.000000e+00
1
Step 199000
Ar 8.924686e-01 0.000000e+00 0.000000e+00
1
Step 200000
Ar 8.949818e-01 0.000000e+00 0.000000e+00
1
Step 201000
Ar 9.963126e-01 0.000000e+00 0.000000e+00
1
Step 202000
Ar 1.014075e+00 0.000000e+00 0.000000e+00
1
Step 203000
Ar 9.569891e-01 0.000000e+00 0.000000e+00
1
Step 204000
Ar 1.089017e+00 0.000000e+00 0.000000e+00
1
Step 205000
Ar 1.087109e+00 0.000000e+00 0.000000e+00
1
Step 206000
Ar 1.008822e+00 0.000000e+00 0.000000e+00
1
Step 207000
Ar 9.142247e-01 0.000000e+00 0.000000e+00
1
Step 208000
Ar 8.860383e-01 0.000000e+00 0.000000e+00
1
Step 209000
Ar 1.040880e+00 0.000000e+00 0.000000e+00
1
Step 210000
Ar 9.941012e-01 0.000000e+00 0.000000e+00
1
Step 211000
Ar 9.781119e-01 0.000000e+00 0.000000e+00
1
Step 212000
Ar 8.967943e-01 0.000000e+00 0.000000e+00
1
Step 213000
Ar 9.506698e-01 0.000000e+00 0.000000e+00
1
Step 214000
Ar 1.044992e+00 0.000000e+00 0.000000e+00
1
Step 215000
Ar 1.096869e+00 0.000000e+00 0.000000e+00
1
Step 216000
Ar 1.008078e+00 0.000000e+00 0.000000e+00
1
Step 217000
Ar 9.733583e-01 0.000000e+00 0.000000e+00
1
Step 218000
Ar 9.899936e-01 0.000000e+00 0.000000e+00
1
Step 219000
Ar 8.779387e-01 0.000000e+00 0.000000e+00
1
Step 220000
Ar 1.040846e+00 0.000000e+00 0.000000e+00
1
Step 221000
Ar 1.016265e+00 0.000000e+00 0.000000e+00
1
Step 222000
Ar 1.043634e+00 0.000000e+00 0.000000e+00
1
Step 223000
Ar 9.501950e-01 0.000000e+00 0.000000e+00
1
Step 224000
Ar 1.047317e+00 0.000000e+00 0.000000e+00
1
Step 225000
Ar 1.034302e+00 0.000000e+00 0.000000e+00
1
Step 226000
Ar 8.827701e-01 0.000000e+00 0.000000e+00
1
Step 227000
Ar 9.109093e-01 0.000000e+00 0.000000e+00
1
Step 228000
Ar 8.857932e-01 0.000000e+00 0.000000e+00
1
Step 229000
Ar 8.855555e-01 0.000000e+00 0.000000e+00
1
Step 230000
Ar 8.848745e-01 0.000000e+00 0.000000e+00
1
Step 231000
Ar 8.881563e-01 0.000000e+00 0.000000e+00
1
Step 232000
Ar 1.061637e+00 0.000000e+00 0.000000e+00
1
Step 233000
Ar 1.007492e+00 0.000000e+00 0.000000e+00
1
Step 234000
Ar 1.052094e+00 0.000000e+00 0.000000e+00
1
Step 235000
Ar 1.001915e+00 0.000000e+00 0.000000e+00
1
Step 236000
Ar 9.826680e-01 0.000000e+00 0.000000e+00
1
Step 237000
Ar 9.790194e-01 0.000000e+00 0.000000e+00
1
Step 238000
Ar 1.140183e+00 0.000000e+00 0.000000e+00
1
Step 239000
Ar 9.631385e-01 0.000000e+00 0.000000e+00
1
Step 240000
Ar 9.808398e-01 0.000000e+00 0.000000e+00
1
Step 241000
Ar 1.125717e+00 0.000000e+00 0.000000e+00
1
Step 242000
Ar 1.104621e+00 0.000000e+00 0.000000e+00
1
Step 243000
Ar 1.107922e+00 0.000000e+00 0.000000e+00
1
Step 244000
Ar 8.764722e-01 0.000000e+00 0.000000e+00
1
Step 245000
Ar 8.745267e-01 0.000000e+00 0.000000e+00
1
Step 246000
Ar 1.049487e+00 0.000000e+00 0.000000e+00
1
Step 247000
Ar 9.140850e-01 0.000000e+00 0.000000e+00
1
Step 248000
Ar 9.509610e-01 0.000000e+00 0.000000e+00
1
Step 249000
Ar 1.105606e+00 0.000000e+00 0.000000e+00
1
Step 250000
Ar 1.109313e+00 0.000000e+00 0.000000e+00
1
Step 251000
Ar 9.324441e-01 0.000000e+00 0.000000e+00
1
Step 252000
Ar 8.632626e-01 0.000000e+00 0.000000e+00
1
Step 253000
Ar 9.534497e-01 0.000000e+00 0.000000e+00
1
Step 254000
Ar 8.378833e-01 0.000000e+00 0.000000e+00
1
Step 255000
Ar 9.925661e-01 0.000000e+00 0.000000e+00
1
Step 256000
Ar 1.027920e+00 0.000000e+00 0.000000e+00
1
Step 257000
Ar 1.047432e+00 0.000000e+00 0.000000e+00
1
Step 258000
Ar 8.501106e-01 0.000000e+00 0.000000e+00
1
Step 259000
Ar 1.116321e+00 0.000000e+00 0.000000e+00
1
Step 260000
Ar 8.153726e-01 0.000000e+00 0.000000e+00
1
Step 261000
Ar 9.822284e-01 0.000000e+00 0.000000e+00
1
Step 262000
Ar 9.624802e-01 0.000000e+00 0.000000e+00
1
Step 263000
Ar 1.022241e+00 0.000000e+00 0.000000e+00
1
Step 264000
Ar 9.289010e-01 0.000000e+00 0.000000e+00
1
Step 265000
Ar 1.015404e+00 0.000000e+00 0.000000e+00
1
Step 266000
Ar 1.115247e+00 0.000000e+00 0.000000e+00
1
Step 267000
Ar 1.051956e+00 0.000000e+00 0.000000e+00
1
Step 268000
Ar 9.281639e-01 0.000000e+00 0.000000e+00
1
Step 269000
Ar 1.087538e+00 0.000000e+00 0.000000e+00
1
Step 270000
Ar 1.007776e+00 0.000000e+00 0.000000e+00
1
Step 271000
Ar 9.499310e-01 0.000000e+00 0.000000e+00
1
Step 272000
Ar 1.027531e+00 0.000000e+00 0.000000e+00
1
Step 273000
Ar 1.025326e+00 0.000000e+00 0.000000e+00
1
Step 274000
Ar 1.023870e+00 0.000000e+00 0.000000e+00
1
Step 275000
Ar 9.158268e-01 0.000000e+00 0.000000e+00
1
Step 276000
Ar 1.024406e+00 0.000000e+00 0.000000e+00
1
Step 277000
Ar 1.087122e+00 0.000000e+00 0.000000e+00
1
Step 278000
Ar 1.046590e+00 0.000000e+00 0.000000e+00
1
Step 279000
Ar 1.052104e+00 0.000000e+00 0.000000e+00
1
Step 280000
Ar 9.901516e-01 0.000000e+00 0.000000e+00
1
Step 281000
Ar 1.025924e+00 0.000000e+00 0.000000e+00
1
Step 282000
Ar 1.028503e+00 0.000000e+00 0.000000e+00
1
Step 283000
Ar 1.024983e+00 0.000000e+00 0.000000e+00
1
Step 284000
Ar 1.027370e+00 0.000000e+00 0.000000e+00
1
Step 285000
Ar 9.933434e-01 0.000000e+00 0.000000e+00
1
Step 286000
Ar 1.141988e+00 0.000000e+00 0.000000e+00
1
Step 287000
Ar 1.074810e+00 0.000000e+00 0.000000e+00
1
Step 288000
Ar 8.245641e-01 0.000000e+00 0.000000e+00
1
Step 289000
Ar 1.010390e+00 0.000000e+00 0.000000e+00
1
Step 290000
Ar 9.648474e-01 0.000000e+00 0.000000e+00
1
Step 291000
Ar 9.465345e-01 0.000000e+00 0.000000e+00
1
Step 292000
Ar 9.523196e-01 0.000000e+00 0.000000e+00
1
Step 293000
Ar 1.102699e+00 0.000000e+00 0.000000e+00
1
Step 294000
Ar 9.789836e-01 0.000000e+00 0.000000e+00
1
Step 295000
Ar 9.527957e-01 0.000000e+00 0.000000e+00
1
Step 296000
Ar 9.649088e-01 0.000000e+00 0.000000e+00
1
Step 297000
Ar 9.653119e-01 0.000000e+00 0.000000e+00
1
Step 298000
Ar 9.633244e-01 0.000000e+00 0.000000e+00
1
Step 299000
Ar 9.625794e-01 0.000000e+00 0.000000e+00
1
Step 300000
Ar 9.570583e-01 0.000000e+00 0.000000e+00
1
Step 301000
Ar 9.696315e-01 0.000000e+00 0.000000e+00
1
Step 302000
Ar 9.688314e-01 0.000000e+00 0.000000e+00
1
Step 303000
Ar 9.703582e-01 0.000000e+00 0.000000e+00
1
Step 304000
Ar 9.680441e-01 0.000000e+00 0.000000e+00
1
Step 305000
Ar 9.680124e-01 0.000000e+00 0.000000e+00
1
Step 306000
Ar 9.828582e-01 0.000000e+00 0.000000e+00
1
Step 307000
Ar 9.751084e-01 0.000000e+00 0.000000e+00
1
Step 308000
Ar 9.794757e-01 0.000000e+00 0.000000e+00
1
Step 309000
Ar 9.794317e-01 0.000000e+00 0.000000e+00
1
Step 310000
Ar 9.745610e-01 0.000000e+00 0.000000e+00
1
Step 311000
Ar 9.398310e-01 0.000000e+00 0.000000e+00
1
Step 312000
Ar 9.426488e-01 0.000000e+00 0.000000e+00
1
Step 313000
Ar 9.418221e-01 0.000000e+00 0.000000e+00
1
Step 314000
Ar 9.428271e-01 0.000000e+00 0.000000e+00
1
Step 315000
Ar 9.434188e-01 0.000000e+00 0.000000e+00
1
Step 316000
Ar 9.373685e-01 0.000000e+00 0.000000e+00
1
Step 317000
Ar 1.063093e+00 0.000000e+00 0.000000e+00
1
Step 318000
Ar 1.073694e+00 0.000000e+00 0.000000e+00
1
Step 319000
Ar 1.054119e+00 0.000000e+00 0.000000e+00
1
Step 320000
Ar 1.052608e+00 0.000000e+00 0.000000e+00
1
Step 321000
Ar 1.074294e+00 0.000000e+00 0.000000e+00
1
Step 322000
Ar 9.332799e-01 0.000000e+00 0.000000e+00
1
Step 323000
Ar 9.311372e-01 0.000000e+00 0.000000e+00
1
Step 324000
Ar 9.324921e-01 0.000000e+00 0.000000e+00
1
Step 325000
Ar 1.020076e+00 0.000000e+00 0.000000e+00
1
Step 326000
Ar 7.702975e-01 0.000000e+00 0.000000e+00
1
Step 327000
Ar 9.505320e-01 0.000000e+00 0.000000e+00
1
Step 328000
Ar 9.359700e-01 0.000000e+00 0.000000e+00
1
Step 329000
Ar 9.359124e-01 0.000000e+00 0.000000e+00
1
Step 330000
Ar 9.351344e-01 0.000000e+00 0.000000e+00
1
Step 331000
Ar 1.017815e+00 0.000000e+00 0.000000e+00
1
Step 332000
Ar 7.983748e-01 0.000000e+00 0.000000e+00
1
Step 333000
Ar 1.017097e+00 0.000000e+00 0.000000e+00
1
Step 334000
Ar 9.455896e-01 0.000000e+00 0.000000e+00
1
Step 335000
Ar 9.248908e-01 0.000000e+00 0.000000e+00
1
Step 336000
Ar 1.205561e+00 0.000000e+00 0.000000e+00
1
Step 337000
Ar 1.240248e+00 0.000000e+00 0.000000e+00
1
Step 338000
Ar 9.432117e-01 0.000000e+00 0.000000e+00
1
Step 339000
Ar 8.949659e-01 0.000000e+00 0.000000e+00
1
Step 340000
Ar 9.612286e-01 0.000000e+00 0.000000e+00
1
Step 341000
Ar 9.721808e-01 0.000000e+00 0.000000e+00
1
Step 342000
Ar 9.335159e-01 0.000000e+00 0.000000e+00
1
Step 343000
Ar 1.142629e+00 0.000000e+00 0.000000e+00
1
Step 344000
Ar 9.404485e-01 0.000000e+00 0.000000e+00
1
Step 345000
Ar 8.635628e-01 0.000000e+00 0.000000e+00
1
Step 346000
Ar 9.506715e-01 0.000000e+00 0.000000e+00
1
Step 347000
Ar 8.392928e-01 0.000000e+00 0.000000e+00
1
Step 348000
Ar 8.864241e-01 0.000000e+00 0.000000e+00
1
Step 349000
Ar 1.080386e+00 0.000000e+00 0.000000e+00
1
Step 350000
Ar 1.072252e+00 0.000000e+00 0.000000e+00
1
Step 351000
Ar 1.106860e+00 0.000000e+00 0.000000e+00
1
Step 352000
Ar 1.131891e+00 0.000000e+00 0.000000e+00
1
Step 353000
Ar 1.059934e+00 0.000000e+00 0.000000e+00
1
Step 354000
Ar 8.266265e-01 0.000000e+00 0.000000e+00
1
Step 355000
Ar 1.051602e+00 0.000000e+00 0.000000e+00
1
Step 356000
Ar 7.085061e-01 0.000000e+00 0.000000e+00
1
Step 357000
Ar 1.041610e+00 0.000000e+00 0.000000e+00
1
Step 358000
Ar 8.565853e-01 0.000000e+00 0.000000e+00
1
Step 359000
Ar 9.399674e-01 0.000000e+00 0.000000e+00
1
Step 360000
Ar 8.520067e-01 0.000000e+00 0.000000e+00
1
Step 361000
Ar 9.418514e-01 0.000000e+00 0.000000e+00
1
Step 362000
Ar 9.580385e-01 0.000000e+00 0.000000e+00
1
Step 363000
Ar 1.054579e+00 0.000000e+00 0.000000e+00
1
Step 364000
Ar 1.029629e+00 0.000000e+00 0.000000e+00
1
Step 365000
Ar 9.073936e-01 0.000000e+00 0.000000e+00
1
Step 366000
Ar 1.022347e+00 0.000000e+00 0.000000e+00
1
Step 367000
Ar 1.201442e+00 0.000000e+00 0.000000e+00
1
Step 368000
Ar 1.145216e+00 0.000000e+00 0.000000e+00
1
Step 369000
Ar 8.998584e-01 0.000000e+00 0.000000e+00
1
Step 370000
Ar 8.963738e-01 0.000000e+00 0.000000e+00
1
Step 371000
Ar 1.116970e+00 0.000000e+00 0.000000e+00
1
Step 372000
Ar 9.752677e-01 0.000000e+00 0.000000e+00
1
Step 373000
Ar 6.815562e-01 0.000000e+00 0.000000e+00
1
Step 374000
Ar 8.980002e-01 0.000000e+00 0.000000e+00
1
Step 375000
Ar 8.589815e-01 0.000000e+00 0.000000e+00
1
Step 376000
Ar 8.447421e-01 0.000000e+00 0.000000e+00
1
Step 377000
Ar 8.419290e-01 0.000000e+00 0.000000e+00
1
Step 378000
Ar 8.385884e-01 0.000000e+00 0.000000e+00
1
Step 379000
Ar 8.424352e-01 0.000000e+00 0.000000e+00
1
Step 380000
Ar 8.438062e-01 0.000000e+00 0.000000e+00
1
Step 381000
Ar 8.605157e-01 0.000000e+00 0.000000e+00
1
Step 382000
Ar 1.094954e+00 0.000000e+00 0.000000e+00
1
Step 383000
Ar 1.202868e+00 0.000000e+00 0.000000e+00
1
Step 384000
Ar 1.040482e+00 0.000000e+00 0.000000e+00
1
Step 385000
Ar 7.799125e-01 0.000000e+00 0.000000e+00
1
Step 386000
Ar 8.810108e-01 0.000000e+00 0.000000e+00
1
Step 387000
Ar 9.690315e-01 0.000000e+00 0.000000e+00
1
Step 388000
Ar 9.693042e-01 0.000000e+00 0.000000e+00
1
Step 389000
Ar 6.842348e-01 0.000000e+00 0.000000e+00
1
Step 390000
Ar 1.038122e+00 0.000000e+00 0.000000e+00
1
Step 391000
Ar 1.069870e+00 0.000000e+00 0.000000e+00
1
Step 392000
Ar 9.324851e-01 0.000000e+00 0.000000e+00
1
Step 393000
Ar 9.177448e-01 0.000000e+00 0.000000e+00
1
Step 394000
Ar 8.544867e-01 0.000000e+00 0.000000e+00
1
Step 395000
Ar 8.067433e-01 0.000000e+00 0.000000e+00
1
Step 396000
Ar 8.312341e-01 0.000000e+00 0.000000e+00
1
Step 397000
Ar 8.375661e-01 0.000000e+00 0.000000e+00
1
Step 398000
Ar 8.370332e-01 0.000000e+00 0.000000e+00
1
Step 399000
Ar 8.372917e-01 0.000000e+00 0.000000e+00
1
Step 400000
Ar 8.352096e-01 0.000000e+00 0.000000e+00
1
Step 401000
Ar 9.278257e-01 0.000000e+00 0.000000e+00
1
Step 402000
Ar 5.682413e-01 0.000000e+00 0.000000e+00
1
Step 403000
Ar 1.062586e+00 0.000000e+00 0.000000e+00
1
Step 404000
Ar 8.906706e-01 0.000000e+00 0.000000e+00
1
Step 405000
Ar 1.034336e+00 0.000000e+00 0.000000e+00
1
Step 406000
Ar 1.227489e+00 0.000000e+00 0.000000e+00
1
Step 407000
Ar 9.391785e-01 0.000000e+00 0.000000e+00
1
Step 408000
Ar 8.214433e-01 0.000000e+00 0.000000e+00
1
Step 409000
Ar 1.099595e+00 0.000000e+00 0.000000e+00
1
Step 410000
Ar 1.102662e+00 0.000000e+00 0.000000e+00
1
Step 411000
Ar 8.084744e-01 0.000000e+00 0.000000e+00
1
Step 412000
Ar 9.509712e-01 0.000000e+00 0.000000e+00
1
Step 413000
Ar 1.116549e+00 0.000000e+00 0.000000e+00
1
Step 414000
Ar 1.115280e+00 0.000000e+00 0.000000e+00
1
Step 415000
Ar 1.120042e+00 0.000000e+00 0.000000e+00
1
Step 416000
Ar 1.027476e+00 0.000000e+00 0.000000e+00
1
Step 417000
Ar 1.026890e+00 0.000000e+00 0.000000e+00
1
Step 418000
Ar 9.257513e-01 0.000000e+00 0.000000e+00
1
Step 419000
Ar 1.148947e+00 0.000000e+00 0.000000e+00
1
Step 420000
Ar 1.213885e+00 0.000000e+00 0.000000e+00
1
Step 421000
Ar 8.790766e-01 0.000000e+00 0.000000e+00
1
Step 422000
Ar 8.834979e-01 0.000000e+00 0.000000e+00
1
Step 423000
Ar 8.858464e-01 0.000000e+00 0.000000e+00
1
Step 424000
Ar 8.808984e-01 0.000000e+00 0.000000e+00
1
Step 425000
Ar 8.827268e-01 0.000000e+00 0.000000e+00
1
Step 426000
Ar 1.149297e+00 0.000000e+00 0.000000e+00
1
Step 427000
Ar 8.506317e-01 0.000000e+00 0.000000e+00
1
Step 428000
Ar 5.301265e-01 0.000000e+00 0.000000e+00
1
Step 429000
Ar 6.289656e-01 0.000000e+00 0.000000e+00
1
Step 430000
Ar 7.947701e-01 0.000000e+00 0.000000e+00
1
Step 431000
Ar 9.776040e-01 0.000000e+00 0.000000e+00
1
Step 432000
Ar 7.436343e-01 0.000000e+00 0.000000e+00
1
Step 433000
Ar 6.646087e-01 0.000000e+00 0.000000e+00
1
Step 434000
Ar 8.503667e-01 0.000000e+00 0.000000e+00
1
Step 435000
Ar 8.621274e-01 0.000000e+00 0.000000e+00
1
Step 436000
Ar 1.139084e+00 0.000000e+00 0.000000e+00
1
Step 437000
Ar 1.064806e+00 0.000000e+00 0.000000e+00
1
Step 438000
Ar 8.519551e-01 0.000000e+00 0.000000e+00
1
Step 439000
Ar 8.530668e-01 0.000000e+00 0.000000e+00
1
Step 440000
Ar 8.481102e-01 0.000000e+00 0.000000e+00
1
Step 441000
Ar 1.191829e+00 0.000000e+00 0.000000e+00
1
Step 442000
Ar 9.832881e-01 0.000000e+00 0.000000e+00
1
Step 443000
Ar 1.070502e+00 0.000000e+00 0.000000e+00
1
Step 444000
Ar 6.651718e-01 0.000000e+00 0.000000e+00
1
Step 445000
Ar 8.375537e-01 0.000000e+00 0.000000e+00
1
Step 446000
Ar 8.562084e-01 0.000000e+00 0.000000e+00
1
Step 447000
Ar 9.501760e-01 0.000000e+00 0.000000e+00
1
Step 448000
Ar 9.528559e-01 0.000000e+00 0.000000e+00
1
Step 449000
Ar 1.049311e+00 0.000000e+00 0.000000e+00
1
Step 450000
Ar 1.105186e+00 0.000000e+00 0.000000e+00
1
Step 451000
Ar 8.122248e-01 0.000000e+00 0.000000e+00
1
Step 452000
Ar 1.117198e+00 0.000000e+00 0.000000e+00
1
Step 453000
Ar 1.132995e+00 0.000000e+00 0.000000e+00
1
Step 454000
Ar 1.130001e+00 0.000000e+00 0.000000e+00
1
Step 455000
Ar 1.126964e+00 0.000000e+00 0.000000e+00
1
Step 456000
Ar 1.119106e+00 0.000000e+00 0.000000e+00
1
Step 457000
Ar 1.019411e+00 0.000000e+00 0.000000e+00
1
Step 458000
Ar 1.128576e+00 0.000000e+00 0.000000e+00
1
Step 459000
Ar 9.322043e-01 0.000000e+00 0.000000e+00
1
Step 460000
Ar 1.021495e+00 0.000000e+00 0.000000e+00
1
Step 461000
Ar 9.947988e-01 0.000000e+00 0.000000e+00
1
Step 462000
Ar 1.105797e+00 0.000000e+00 0.000000e+00
1
Step 463000
Ar 6.949259e-01 0.000000e+00 0.000000e+00
1
Step 464000
Ar 5.842512e-01 0.000000e+00 0.000000e+00
1
Step 465000
Ar 1.000261e+00 0.000000e+00 0.000000e+00
1
Step 466000
Ar 4.134076e-01 0.000000e+00 0.000000e+00
1
Step 467000
Ar 1.024460e+00 0.000000e+00 0.000000e+00
1
Step 468000
Ar 9.336098e-01 0.000000e+00 0.000000e+00
1
Step 469000
Ar 1.077505e+00 0.000000e+00 0.000000e+00
1
Step 470000
Ar 1.021617e+00 0.000000e+00 0.000000e+00
1
Step 471000
Ar 9.591363e-01 0.000000e+00 0.000000e+00
1
Step 472000
Ar 6.765744e-01 0.000000e+00 0.000000e+00
1
Step 473000
Ar -1.017126e+00 0.000000e+00 0.000000e+00
1
Step 474000
Ar -9.735972e-01 0.000000e+00 0.000000e+00
1
Step 475000
Ar -1.006472e+00 0.000000e+00 0.000000e+00
1
Step 476000
Ar -9.905394e-01 0.000000e+00 0.000000e+00
1
Step 477000
Ar -9.867380e-01 0.000000e+00 0.000000e+00
1
Step 478000
Ar -9.886529e-01 0.000000e+00 0.000000e+00
1
Step 479000
Ar -9.884860e-01 0.000000e+00 0.000000e+00
1
Step 480000
Ar -9.898372e-01 0.000000e+00 0.000000e+00
1
Step 481000
Ar -9.710412e-01 0.000000e+00 0.000000e+00
1
Step 482000
Ar -9.733989e-01 0.000000e+00 0.000000e+00
1
Step 483000
Ar -9.764704e-01 0.000000e+00 0.000000e+00
1
Step 484000
Ar -9.750815e-01 0.000000e+00 0.000000e+00
1
Step 485000
Ar -9.704717e-01 0.000000e+00 0.000000e+00
1
Step 486000
Ar -1.018142e+00 0.000000e+00 0.000000e+00
1
Step 487000
Ar -1.015554e+00 0.000000e+00 0.000000e+00
1
Step 488000
Ar -1.041254e+00 0.000000e+00 0.000000e+00
1
Step 489000
Ar -1.031993e+00 0.000000e+00 0.000000e+00
1
Step 490000
Ar -1.030982e+00 0.000000e+00 0.000000e+00
1
Step 491000
Ar -9.547239e-01 0.000000e+00 0.000000e+00
1
Step 492000
Ar -9.578374e-01 0.000000e+00 0.000000e+00
1
Step 493000
Ar -9.570843e-01 0.000000e+00 0.000000e+00
1
Step 494000
Ar -9.550902e-01 0.000000e+00 0.000000e+00
1
Step 495000
Ar -9.564460e-01 0.000000e+00 0.000000e+00
1
Step 496000
Ar -1.016390e+00 0.000000e+00 0.000000e+00
1
Step 497000
Ar -1.021524e+00 0.000000e+00 0.000000e+00
1
Step 498000
Ar -1.019244e+00 0.000000e+00 0.000000e+00
1
Step 499000
Ar -1.018910e+00 0.000000e+00 0.000000e+00
1
Step 500000
Ar -1.016705e+00 0.000000e+00 0.000000e+00
1
Step 501000
Ar -1.043434e+00 0.000000e+00 0.000000e+00
1
Step 502000
Ar -1.041478e+00 0.000000e+00 0.000000e+00
1
Step 503000
Ar -1.045387e+00 0.000000e+00 0.000000e+00
1
Step 504000
Ar -1.041027e+00 0.000000e+00 0.000000e+00
1
Step 505000
Ar -1.048636e+00 0.000000e+00 0.000000e+00
1
Step 506000
Ar -9.839258e-01 0.000000e+00 0.000000e+00
1
Step 507000
Ar -9.463137e-01 0.000000e+00 0.000000e+00
1
Step 508000
Ar -9.435912e-01 0.000000e+00 0.000000e+00
1
Step 509000
Ar -9.453576e-01 0.000000e+00 0.000000e+00
1
Step 510000
Ar -9.441285e-01 0.000000e+00 0.000000e+00
1
Step 511000
Ar -9.348711e-01 0.000000e+00 0.000000e+00
1
Step 512000
Ar -9.345068e-01 0.000000e+00 0.000000e+00
1
Step 513000
Ar -9.304796e-01 0.000000e+00 0.000000e+00
1
Step 514000
Ar -9.385267e-01 0.000000e+00 0.000000e+00
1
Step 515000
Ar -9.328073e-01 0.000000e+00 0.000000e+00
1
Step 516000
Ar -9.180658e-01 0.000000e+00 0.000000e+00
1
Step 517000
Ar -9.251597e-01 0.000000e+00 0.000000e+00
1
Step 518000
Ar -9.229631e-01 0.000000e+00 0.000000e+00
1
Step 519000
Ar -9.230608e-01 0.000000e+00 0.000000e+00
1
Step 520000
Ar -9.217127e-01 0.000000e+00 0.000000e+00
1
Step 521000
Ar -8.645843e-01 0.000000e+00 0.000000e+00
1
Step 522000
Ar -1.064689e+00 0.000000e+00 0.000000e+00
1
Step 523000
Ar -1.062985e+00 0.000000e+00 0.000000e+00
1
Step 524000
Ar -1.059930e+00 0.000000e+00 0.000000e+00
1
Step 525000
Ar -1.056344e+00 0.000000e+00 0.000000e+00
1
Step 526000
Ar -1.065554e+00 0.000000e+00 0.000000e+00
1
Step 527000
Ar -1.067177e+00 0.000000e+00 0.000000e+00
1
Step 528000
Ar -1.061088e+00 0.000000e+00 0.000000e+00
1
Step 529000
Ar -1.070073e+00 0.000000e+00 0.000000e+00
1
Step 530000
Ar -1.070835e+00 0.000000e+00 0.000000e+00
1
Step 531000
Ar -9.406626e-01 0.000000e+00 0.000000e+00
1
Step 532000
Ar -9.959510e-01 0.000000e+00 0.000000e+00
1
Step 533000
Ar -1.080755e+00 0.000000e+00 0.000000e+00
1
Step 534000
Ar -1.080934e+00 0.000000e+00 0.000000e+00
1
Step 535000
Ar -1.078877e+00 0.000000e+00 0.000000e+00
1
Step 536000
Ar -9.476699e-01 0.000000e+00 0.000000e+00
1
Step 537000
Ar -9.833063e-01 0.000000e+00 0.000000e+00
1
Step 538000
Ar -9.081024e-01 0.000000e+00 0.000000e+00
1
Step 539000
Ar -9.122000e-01 0.000000e+00 0.000000e+00
1
Step 540000
Ar -9.108667e-01 0.000000e+00 0.000000e+00
1
Step 541000
Ar -9.448912e-01 0.000000e+00 0.000000e+00
1
Step 542000
Ar -9.986109e-01 0.000000e+00 0.000000e+00
1
Step 543000
Ar -9.693204e-01 0.000000e+00 0.000000e+00
1
Step 544000
Ar -9.836791e-01 0.000000e+00 0.000000e+00
1
Step 545000
Ar -9.778797e-01 0.000000e+00 0.000000e+00
1
Step 546000
Ar -1.123423e+00 0.000000e+00 0.000000e+00
1
Step 547000
Ar -9.971204e-01 0.000000e+00 0.000000e+00
1
Step 548000
Ar -9.953375e-01 0.000000e+00 0.000000e+00
1
Step 549000
Ar -9.691135e-01 0.000000e+00 0.000000e+00
1
Step 550000
Ar -1.114986e+00 0.000000e+00 0.000000e+00
1
Step 551000
Ar -8.981970e-01 0.000000e+00 0.000000e+00
1
Step 552000
Ar -8.984481e-01 0.000000e+00 0.000000e+00
1
Step 553000
Ar -8.962927e-01 0.000000e+00 0.000000e+00
1
Step 554000
Ar -9.008503e-01 0.000000e+00 0.000000e+00
1
Step 555000
Ar -9.007650e-01 0.000000e+00 0.000000e+00
1
Step 556000
Ar -9.149668e-01 0.000000e+00 0.000000e+00
1
Step 557000
Ar -9.648357e-01 0.000000e+00 0.000000e+00
1
Step 558000
Ar -8.780210e-01 0.000000e+00 0.000000e+00
1
Step 559000
Ar -8.613328e-01 0.000000e+00 0.000000e+00
1
Step 560000
Ar -9.621617e-01 0.000000e+00 0.000000e+00
1
Step 561000
Ar -1.019437e+00 0.000000e+00 0.000000e+00
1
Step 562000
Ar -8.080643e-01 0.000000e+00 0.000000e+00
1
Step 563000
Ar -9.373052e-01 0.000000e+00 0.000000e+00
1
Step 564000
Ar -1.089237e+00 0.000000e+00 0.000000e+00
1
Step 565000
Ar -1.087280e+00 0.000000e+00 0.000000e+00
1
Step 566000
Ar -1.095560e+00 0.000000e+00 0.000000e+00
1
Step 567000
Ar -1.096101e+00 0.000000e+00 0.000000e+00
1
Step 568000
Ar -1.147729e+00 0.000000e+00 0.000000e+00
1
Step 569000
Ar -9.490164e-01 0.000000e+00 0.000000e+00
1
Step 570000
Ar -1.159067e+00 0.000000e+00 0.000000e+00
1
Step 571000
Ar -1.035923e+00 0.000000e+00 0.000000e+00
1
Step 572000
Ar -1.107508e+00 0.000000e+00 0.000000e+00
1
Step 573000
Ar -1.183647e+00 0.000000e+00 0.000000e+00
1
Step 574000
Ar -8.018352e-01 0.000000e+00 0.000000e+00
1
Step 575000
Ar -1.096415e+00 0.000000e+00 0.000000e+00
1
Step 576000
Ar -1.013429e+00 0.000000e+00 0.000000e+00
1
Step 577000
Ar -1.007243e+00 0.000000e+00 0.000000e+00
1
Step 578000
Ar -9.993612e-01 0.000000e+00 0.000000e+00
1
Step 579000
Ar -1.012502e+00 0.000000e+00 0.000000e+00
1
Step 580000
Ar -9.428827e-01 0.000000e+00 0.000000e+00
1
Step 581000
Ar -1.039932e+00 0.000000e+00 0.000000e+00
1
Step 582000
Ar -8.951131e-01 0.000000e+00 0.000000e+00
1
Step 583000
Ar -8.874512e-01 0.000000e+00 0.000000e+00
1
Step 584000
Ar -8.930040e-01 0.000000e+00 0.000000e+00
1
Step 585000
Ar -8.665333e-01 0.000000e+00 0.000000e+00
1
Step 586000
Ar -1.007670e+00 0.000000e+00 0.000000e+00
1
Step 587000
Ar -8.914711e-01 0.000000e+00 0.000000e+00
1
Step 588000
Ar -9.972627e-01 0.000000e+00 0.000000e+00
1
Step 589000
Ar -8.477846e-01 0.000000e+00 0.000000e+00
1
Step 590000
Ar -1.024973e+00 0.000000e+00 0.000000e+00
1
Step 591000
Ar -9.816197e-01 0.000000e+00 0.000000e+00
1
Step 592000
Ar -8.527892e-01 0.000000e+00 0.000000e+00
1
Step 593000
Ar -8.412209e-01 0.000000e+00 0.000000e+00
1
Step 594000
Ar -9.874529e-01 0.000000e+00 0.000000e+00
1
Step 595000
Ar -8.595013e-01 0.000000e+00 0.000000e+00
1
Step 596000
Ar -8.863424e-01 0.000000e+00 0.000000e+00
1
Step 597000
Ar -8.908976e-01 0.000000e+00 0.000000e+00
1
Step 598000
Ar -8.886440e-01 0.000000e+00 0.000000e+00
1
Step 599000
Ar -8.938478e-01 0.000000e+00 0.000000e+00
1
Step 600000
Ar -8.852016e-01 0.000000e+00 0.000000e+00
1
Step 601000
Ar -1.064764e+00 0.000000e+00 0.000000e+00
1
Step 602000
Ar -8.446933e-01 0.000000e+00 0.000000e+00
1
Step 603000
Ar -8.497824e-01 0.000000e+00 0.000000e+00
1
Step 604000
Ar -8.490611e-01 0.000000e+00 0.000000e+00
1
Step 605000
Ar -1.099441e+00 0.000000e+00 0.000000e+00
1
Step 606000
Ar -1.001076e+00 0.000000e+00 0.000000e+00
1
Step 607000
Ar -1.002671e+00 0.000000e+00 0.000000e+00
1
Step 608000
Ar -1.041229e+00 0.000000e+00 0.000000e+00
1
Step 609000
Ar -8.498867e-01 0.000000e+00 0.000000e+00
1
Step 610000
Ar -9.447535e-01 0.000000e+00 0.000000e+00
1
Step 611000
Ar -1.039325e+00 0.000000e+00 0.000000e+00
1
Step 612000
Ar -9.428475e-01 0.000000e+00 0.000000e+00
1
Step 613000
Ar -1.146850e+00 0.000000e+00 0.000000e+00
1
Step 614000
Ar -9.362293e-01 0.000000e+00 0.000000e+00
1
Step 615000
Ar -9.280227e-01 0.000000e+00 0.000000e+00
1
Step 616000
Ar -9.166550e-01 0.000000e+00 0.000000e+00
1
Step 617000
Ar -9.120699e-01 0.000000e+00 0.000000e+00
1
Step 618000
Ar -9.168520e-01 0.000000e+00 0.000000e+00
1
Step 619000
Ar -1.023247e+00 0.000000e+00 0.000000e+00
1
Step 620000
Ar -9.860021e-01 0.000000e+00 0.000000e+00
1
Step 621000
Ar -1.013621e+00 0.000000e+00 0.000000e+00
1
Step 622000
Ar -1.122169e+00 0.000000e+00 0.000000e+00
1
Step 623000
Ar -8.775092e-01 0.000000e+00 0.000000e+00
1
Step 624000
Ar -9.983799e-01 0.000000e+00 0.000000e+00
1
Step 625000
Ar -1.096082e+00 0.000000e+00 0.000000e+00
1
Step 626000
Ar -6.815280e-01 0.000000e+00 0.000000e+00
1
Step 627000
Ar -9.511759e-01 0.000000e+00 0.000000e+00
1
Step 628000
Ar -7.745760e-01 0.000000e+00 0.000000e+00
1
Step 629000
Ar -1.004078e+00 0.000000e+00 0.000000e+00
1
Step 630000
Ar -1.412379e+00 0.000000e+00 0.000000e+00
1
Step 631000
Ar -9.732327e-01 0.000000e+00 0.000000e+00
1
Step 632000
Ar -1.164899e+00 0.000000e+00 0.000000e+00
1
Step 633000
Ar -9.408736e-01 0.000000e+00 0.000000e+00
1
Step 634000
Ar -8.511382e-01 0.000000e+00 0.000000e+00
1
Step 635000
Ar -8.464053e-01 0.000000e+00 0.000000e+00
1
Step 636000
Ar -1.142449e+00 0.000000e+00 0.000000e+00
1
Step 637000
Ar -1.108335e+00 0.000000e+00 0.000000e+00
1
Step 638000
Ar -9.201357e-01 0.000000e+00 0.000000e+00
1
Step 639000
Ar -1.163378e+00 0.000000e+00 0.000000e+00
1
Step 640000
Ar -9.983609e-01 0.000000e+00 0.000000e+00
1
Step 641000
Ar -9.594763e-01 0.000000e+00 0.000000e+00
1
Step 642000
Ar -1.065057e+00 0.000000e+00 0.000000e+00
1
Step 643000
Ar -1.010468e+00 0.000000e+00 0.000000e+00
1
Step 644000
Ar -9.948183e-01 0.000000e+00 0.000000e+00
1
Step 645000
Ar -1.012155e+00 0.000000e+00 0.000000e+00
1
Step 646000
Ar -9.258957e-01 0.000000e+00 0.000000e+00
1
Step 647000
Ar -1.046421e+00 0.000000e+00 0.000000e+00
1
Step 648000
Ar -9.946613e-01 0.000000e+00 0.000000e+00
1
Step 649000
Ar -9.980415e-01 0.000000e+00 0.000000e+00
1
Step 650000
Ar -9.953393e-01 0.000000e+00 0.000000e+00
1
Step 651000
Ar -9.008163e-01 0.000000e+00 0.000000e+00
1
Step 652000