1
Step 120000
Ar 1.006705e+00 0.000000e+00 0.000000e+00
1
Step 121000
Ar 9.913707e-01 0.000000e+00 0.000000e+00
1
Step 122000
Ar 9.950471e-01 0.000000e+00 0.000000e+00
1
Step 123000
Ar 9.826101e-01 0.000000e+00 0.000000e+00
1
Step 124000
Ar 9.990172e-01 0.000000e+00 0.000000e+00
1
Step 125000
Ar 1.002751e+00 0.000000e+00 0.000000e+00
1
Step 126000
Ar 9.911466e-01 0.000000e+00 0.000000e+00
1
Step 127000
Ar 9.780394e-01 0.000000e+00 0.000000e+00
1
Step 128000
Ar 9.889463e-01 0.000000e+00 0.000000e+00
1
Step 129000
Ar 9.910158e-01 0.000000e+00 0.000000e+00
1
Step 130000
Ar 9.889519e-01 0.000000e+00 0.000000e+00
1
Step 131000
Ar 1.017650e+00 0.000000e+00 0.000000e+00
1
Step 132000
Ar 1.014174e+00 0.000000e+00 0.000000e+00
1
Step 133000
Ar 1.016180e+00 0.000000e+00 0.000000e+00
1
Step 134000
Ar 1.013977e+00 0.000000e+00 0.000000e+00
1
Step 135000
Ar 1.017679e+00 0.000000e+00 0.000000e+00
1
Step 136000
Ar 1.026854e+00 0.000000e+00 0.000000e+00
1
Step 137000
Ar 1.036442e+00 0.000000e+00 0.000000e+00
1
Step 138000
Ar 1.030124e+00 0.000000e+00 0.000000e+00
1
Step 139000
Ar 1.029726e+00 0.000000e+00 0.000000e+00
1
Step 140000
Ar 1.033913e+00 0.000000e+00 0.000000e+00
1
Step 141000
Ar 9.759953e-01 0.000000e+00 0.000000e+00
1
Step 142000
Ar 9.809013e-01 0.000000e+00 0.000000e+00
1
Step 143000
Ar 9.719909e-01 0.000000e+00 0.000000e+00
1
Step 144000
Ar 9.645366e-01 0.000000e+00 0.000000e+00
1
Step 145000
Ar 9.799205e-01 0.000000e+00 0.000000e+00
1
Step 146000
Ar 9.669987e-01 0.000000e+00 0.000000e+00
1
Step 147000
Ar 9.632473e-01 0.000000e+00 0.000000e+00
1
Step 148000
Ar 9.645478e-01 0.000000e+00 0.000000e+00
1
Step 149000
Ar 9.657512e-01 0.000000e+00 0.000000e+00
1
Step 150000
Ar 9.671214e-01 0.000000e+00 0.000000e+00
1
Step 151000
Ar 9.526301e-01 0.000000e+00 0.000000e+00
1
Step 152000
Ar 9.514854e-01 0.000000e+00 0.000000e+00
1
Step 153000
Ar 9.504147e-01 0.000000e+00 0.000000e+00
1
Step 154000
Ar 9.549485e-01 0.000000e+00 0.000000e+00
1
Step 155000
Ar 9.475638e-01 0.000000e+00 0.000000e+00
1
Step 156000
Ar 9.353417e-01 0.000000e+00 0.000000e+00
1
Step 157000
Ar 9.351246e-01 0.000000e+00 0.000000e+00
1
Step 158000
Ar 9.328873e-01 0.000000e+00 0.000000e+00
1
Step 159000
Ar 9.340485e-01 0.000000e+00 0.000000e+00
1
Step 160000
Ar 9.392706e-01 0.000000e+00 0.000000e+00
1
Step 161000
Ar 9.261432e-01 0.000000e+00 0.000000e+00
1
Step 162000
Ar 9.298481e-01 0.000000e+00 0.000000e+00
1
Step 163000
Ar 9.248985e-01 0.000000e+00 0.000000e+00
1
Step 164000
Ar 9.255127e-01 0.000000e+00 0.000000e+00
1
Step 165000
Ar 9.280340e-01 0.000000e+00 0.000000e+00
1
Step 166000
Ar 9.303506e-01 0.000000e+00 0.000000e+00
1
Step 167000
Ar 8.481141e-01 0.000000e+00 0.000000e+00
1
Step 168000
Ar 1.050001e+00 0.000000e+00 0.000000e+00
1
Step 169000
Ar 1.051512e+00 0.000000e+00 0.000000e+00
1
Step 170000
Ar 1.045853e+00 0.000000e+00 0.000000e+00
1
Step 171000
Ar 1.062218e+00 0.000000e+00 0.000000e+00
1
Step 172000
Ar 1.058624e+00 0.000000e+00 0.000000e+00
1
Step 173000
Ar 1.053414e+00 0.000000e+00 0.000000e+00
1
Step 174000
Ar 1.013563e+00 0.000000e+00 0.000000e+00
1
Step 175000
Ar 8.563485e-01 0.000000e+00 0.000000e+00
1
Step 176000
Ar 1.057540e+00 0.000000e+00 0.000000e+00
1
Step 177000
Ar 1.059751e+00 0.000000e+00 0.000000e+00
1
Step 178000
Ar 1.057479e+00 0.000000e+00 0.000000e+00
1
Step 179000
Ar 1.060335e+00 0.000000e+00 0.000000e+00
1
Step 180000
Ar 1.057727e+00 0.000000e+00 0.000000e+00
1
Step 181000
Ar 1.067378e+00 0.000000e+00 0.000000e+00
1
Step 182000
Ar 1.064963e+00 0.000000e+00 0.000000e+00
1
Step 183000
Ar 1.069821e+00 0.000000e+00 0.000000e+00
1
Step 184000
Ar 1.069971e+00 0.000000e+00 0.000000e+00
1
Step 185000
Ar 9.967535e-01 0.000000e+00 0.000000e+00
1
Step 186000
Ar 1.096599e+00 0.000000e+00 0.000000e+00
1
Step 187000
Ar 9.214200e-01 0.000000e+00 0.000000e+00
1
Step 188000
Ar 9.578596e-01 0.000000e+00 0.000000e+00
1
Step 189000
Ar 9.627588e-01 0.000000e+00 0.000000e+00
1
Step 190000
Ar 8.948016e-01 0.000000e+00 0.000000e+00
1
Step 191000
Ar 9.122519e-01 0.000000e+00 0.000000e+00
1
Step 192000
Ar 9.180305e-01 0.000000e+00 0.000000e+00
1
Step 193000
Ar 9.157235e-01 0.000000e+00 0.000000e+00
1
Step 194000
Ar 9.101064e-01 0.000000e+00 0.000000e+00
1
Step 195000
Ar 9.199000e-01 0.000000e+00 0.000000e+00
1
Step 196000
Ar 9.134535e-01 0.000000e+00 0.000000e+00
1
Step 197000
Ar 9.075332e-01 0.000000e+00 0.000000e+00
1
Step 198000
Ar 9.128329e-01 0.000000e+00 0.000000e+00
1
Step 199000
Ar 9.098388e-01 0.000000e+00 0.000000e+00
1
Step 200000
Ar 9.102318e-01 0.000000e+00 0.000000e+00
1
Step 201000
Ar 9.589620e-01 0.000000e+00 0.000000e+00
1
Step 202000
Ar 1.114639e+00 0.000000e+00 0.000000e+00
1
Step 203000
Ar 1.016342e+00 0.000000e+00 0.000000e+00
1
Step 204000
Ar 9.704777e-01 0.000000e+00 0.000000e+00
1
Step 205000
Ar 8.487698e-01 0.000000e+00 0.000000e+00
1
Step 206000
Ar 9.804167e-01 0.000000e+00 0.000000e+00
1
Step 207000
Ar 9.539391e-01 0.000000e+00 0.000000e+00
1
Step 208000
Ar 1.027061e+00 0.000000e+00 0.000000e+00
1
Step 209000
Ar 9.826983e-01 0.000000e+00 0.000000e+00
1
Step 210000
Ar 1.027934e+00 0.000000e+00 0.000000e+00
1
Step 211000
Ar 1.061370e+00 0.000000e+00 0.000000e+00
1
Step 212000
Ar 8.978032e-01 0.000000e+00 0.000000e+00
1
Step 213000
Ar 1.061521e+00 0.000000e+00 0.000000e+00
1
Step 214000
Ar 8.901523e-01 0.000000e+00 0.000000e+00
1
Step 215000
Ar 1.066957e+00 0.000000e+00 0.000000e+00
1
Step 216000
Ar 1.079690e+00 0.000000e+00 0.000000e+00
1
Step 217000
Ar 1.074527e+00 0.000000e+00 0.000000e+00
1
Step 218000
Ar 1.076651e+00 0.000000e+00 0.000000e+00
1
Step 219000
Ar 1.073569e+00 0.000000e+00 0.000000e+00
1
Step 220000
Ar 1.080220e+00 0.000000e+00 0.000000e+00
1
Step 221000
Ar 9.552780e-01 0.000000e+00 0.000000e+00
1
Step 222000
Ar 9.562121e-01 0.000000e+00 0.000000e+00
1
Step 223000
Ar 9.594011e-01 0.000000e+00 0.000000e+00
1
Step 224000
Ar 9.586550e-01 0.000000e+00 0.000000e+00
1
Step 225000
Ar 9.599145e-01 0.000000e+00 0.000000e+00
1
Step 226000
Ar 1.042192e+00 0.000000e+00 0.000000e+00
1
Step 227000
Ar 1.040691e+00 0.000000e+00 0.000000e+00
1
Step 228000
Ar 9.609964e-01 0.000000e+00 0.000000e+00
1
Step 229000
Ar 1.011089e+00 0.000000e+00 0.000000e+00
1
Step 230000
Ar 8.827533e-01 0.000000e+00 0.000000e+00
1
Step 231000
Ar 1.042654e+00 0.000000e+00 0.000000e+00
1
Step 232000
Ar 1.005119e+00 0.000000e+00 0.000000e+00
1
Step 233000
Ar 1.039924e+00 0.000000e+00 0.000000e+00
1
Step 234000
Ar 9.761279e-01 0.000000e+00 0.000000e+00
1
Step 235000
Ar 9.746939e-01 0.000000e+00 0.000000e+00
1
Step 236000
Ar 1.101583e+00 0.000000e+00 0.000000e+00
1
Step 237000
Ar 9.361467e-01 0.000000e+00 0.000000e+00
1
Step 238000
Ar 8.820560e-01 0.000000e+00 0.000000e+00
1
Step 239000
Ar 9.373205e-01 0.000000e+00 0.000000e+00
1
Step 240000
Ar 9.636436e-01 0.000000e+00 0.000000e+00
1
Step 241000
Ar 1.069602e+00 0.000000e+00 0.000000e+00
1
Step 242000
Ar 1.091550e+00 0.000000e+00 0.000000e+00
1
Step 243000
Ar 9.897523e-01 0.000000e+00 0.000000e+00
1
Step 244000
Ar 1.061327e+00 0.000000e+00 0.000000e+00
1
Step 245000
Ar 6.760638e-01 0.000000e+00 0.000000e+00
1
Step 246000
Ar 1.100010e+00 0.000000e+00 0.000000e+00
1
Step 247000
Ar 9.873744e-01 0.000000e+00 0.000000e+00
1
Step 248000
Ar 1.007286e+00 0.000000e+00 0.000000e+00
1
Step 249000
Ar 1.039738e+00 0.000000e+00 0.000000e+00
1
Step 250000
Ar 8.353502e-01 0.000000e+00 0.000000e+00
1
Step 251000
Ar 8.142560e-01 0.000000e+00 0.000000e+00
1
Step 252000
Ar 9.042050e-01 0.000000e+00 0.000000e+00
1
Step 253000
Ar 9.232855e-01 0.000000e+00 0.000000e+00
1
Step 254000
Ar 1.102213e+00 0.000000e+00 0.000000e+00
1
Step 255000
Ar 9.422618e-01 0.000000e+00 0.000000e+00
1
Step 256000
Ar 9.098925e-01 0.000000e+00 0.000000e+00
1
Step 257000
Ar 1.091259e+00 0.000000e+00 0.000000e+00
1
Step 258000
Ar 1.095693e+00 0.000000e+00 0.000000e+00
1
Step 259000
Ar 1.091563e+00 0.000000e+00 0.000000e+00
1
Step 260000
Ar 1.087636e+00 0.000000e+00 0.000000e+00
1
Step 261000
Ar 1.095498e+00 0.000000e+00 0.000000e+00
1
Step 262000
Ar 1.093761e+00 0.000000e+00 0.000000e+00
1
Step 263000
Ar 1.098276e+00 0.000000e+00 0.000000e+00
1
Step 264000
Ar 1.098745e+00 0.000000e+00 0.000000e+00
1
Step 265000
Ar 1.098370e+00 0.000000e+00 0.000000e+00
1
Step 266000
Ar 1.046348e+00 0.000000e+00 0.000000e+00
1
Step 267000
Ar 1.010865e+00 0.000000e+00 0.000000e+00
1
Step 268000
Ar 9.900842e-01 0.000000e+00 0.000000e+00
1
Step 269000
Ar 8.544460e-01 0.000000e+00 0.000000e+00
1
Step 270000
Ar 8.513488e-01 0.000000e+00 0.000000e+00
1
Step 271000
Ar 8.701676e-01 0.000000e+00 0.000000e+00
1
Step 272000
Ar 1.109552e+00 0.000000e+00 0.000000e+00
1
Step 273000
Ar 9.994172e-01 0.000000e+00 0.000000e+00
1
Step 274000
Ar 1.082429e+00 0.000000e+00 0.000000e+00
1
Step 275000
Ar 9.341697e-01 0.000000e+00 0.000000e+00
1
Step 276000
Ar 9.110750e-01 0.000000e+00 0.000000e+00
1
Step 277000
Ar 8.672913e-01 0.000000e+00 0.000000e+00
1
Step 278000
Ar 9.169649e-01 0.000000e+00 0.000000e+00
1
Step 279000
Ar 9.174964e-01 0.000000e+00 0.000000e+00
1
Step 280000
Ar 9.150129e-01 0.000000e+00 0.000000e+00
1
Step 281000
Ar 8.745708e-01 0.000000e+00 0.000000e+00
1
Step 282000
Ar 8.742343e-01 0.000000e+00 0.000000e+00
1
Step 283000
Ar 8.745983e-01 0.000000e+00 0.000000e+00
1
Step 284000
Ar 8.761400e-01 0.000000e+00 0.000000e+00
1
Step 285000
Ar 8.719164e-01 0.000000e+00 0.000000e+00
1
Step 286000
Ar 1.070602e+00 0.000000e+00 0.000000e+00
1
Step 287000
Ar 1.042922e+00 0.000000e+00 0.000000e+00
1
Step 288000
Ar 1.076266e+00 0.000000e+00 0.000000e+00
1
Step 289000
Ar 1.008891e+00 0.000000e+00 0.000000e+00
1
Step 290000
Ar 1.001717e+00 0.000000e+00 0.000000e+00
1
Step 291000
Ar 7.506887e-01 0.000000e+00 0.000000e+00
1
Step 292000
Ar 9.227295e-01 0.000000e+00 0.000000e+00
1
Step 293000
Ar 9.257082e-01 0.000000e+00 0.000000e+00
1
Step 294000
Ar 9.252654e-01 0.000000e+00 0.000000e+00
1
Step 295000
Ar 7.040932e-01 0.000000e+00 0.000000e+00
1
Step 296000
Ar 9.834340e-01 0.000000e+00 0.000000e+00
1
Step 297000
Ar 9.872179e-01 0.000000e+00 0.000000e+00
1
Step 298000
Ar 9.869827e-01 0.000000e+00 0.000000e+00
1
Step 299000
Ar 9.845203e-01 0.000000e+00 0.000000e+00
1
Step 300000
Ar 9.884459e-01 0.000000e+00 0.000000e+00
1
Step 301000
Ar 7.701198e-01 0.000000e+00 0.000000e+00
1
Step 302000
Ar 9.753203e-01 0.000000e+00 0.000000e+00
1
Step 303000
Ar 9.753597e-01 0.000000e+00 0.000000e+00
1
Step 304000
Ar 9.759301e-01 0.000000e+00 0.000000e+00
1
Step 305000
Ar 9.768027e-01 0.000000e+00 0.000000e+00
1
Step 306000
Ar 1.057151e+00 0.000000e+00 0.000000e+00
1
Step 307000
Ar 9.250756e-01 0.000000e+00 0.000000e+00
1
Step 308000
Ar 9.269929e-01 0.000000e+00 0.000000e+00
1
Step 309000
Ar 1.084065e+00 0.000000e+00 0.000000e+00
1
Step 310000
Ar 1.098362e+00 0.000000e+00 0.000000e+00
1
Step 311000
Ar 8.190562e-01 0.000000e+00 0.000000e+00
1
Step 312000
Ar 8.265640e-01 0.000000e+00 0.000000e+00
1
Step 313000
Ar 9.729821e-01 0.000000e+00 0.000000e+00
1
Step 314000
Ar 9.008020e-01 0.000000e+00 0.000000e+00
1
Step 315000
Ar 9.232274e-01 0.000000e+00 0.000000e+00
1
Step 316000
Ar 1.110028e+00 0.000000e+00 0.000000e+00
1
Step 317000
Ar 7.520774e-01 0.000000e+00 0.000000e+00
1
Step 318000
Ar 1.143957e+00 0.000000e+00 0.000000e+00
1
Step 319000
Ar 7.160005e-01 0.000000e+00 0.000000e+00
1
Step 320000
Ar 1.087118e+00 0.000000e+00 0.000000e+00
1
Step 321000
Ar 9.283416e-01 0.000000e+00 0.000000e+00
1
Step 322000
Ar 1.111060e+00 0.000000e+00 0.000000e+00
1
Step 323000
Ar 9.212139e-01 0.000000e+00 0.000000e+00
1
Step 324000
Ar 5.988802e-01 0.000000e+00 0.000000e+00
1
Step 325000
Ar 1.010444e+00 0.000000e+00 0.000000e+00
1
Step 326000
Ar 1.049873e+00 0.000000e+00 0.000000e+00
1
Step 327000
Ar 1.025410e+00 0.000000e+00 0.000000e+00
1
Step 328000
Ar 1.039007e+00 0.000000e+00 0.000000e+00
1
Step 329000
Ar 9.906340e-01 0.000000e+00 0.000000e+00
1
Step 330000
Ar 9.440860e-01 0.000000e+00 0.000000e+00
1
Step 331000
Ar 9.772181e-01 0.000000e+00 0.000000e+00
1
Step 332000
Ar 9.958039e-01 0.000000e+00 0.000000e+00
1
Step 333000
Ar 1.036746e+00 0.000000e+00 0.000000e+00
1
Step 334000
Ar 1.041823e+00 0.000000e+00 0.000000e+00
1
Step 335000
Ar 1.042064e+00 0.000000e+00 0.000000e+00
1
Step 336000
Ar 1.020266e+00 0.000000e+00 0.000000e+00
1
Step 337000
Ar 1.018893e+00 0.000000e+00 0.000000e+00
1
Step 338000
Ar 1.022217e+00 0.000000e+00 0.000000e+00
1
Step 339000
Ar 1.017965e+00 0.000000e+00 0.000000e+00
1
Step 340000
Ar 1.023784e+00 0.000000e+00 0.000000e+00
1
Step 341000
Ar 1.012088e+00 0.000000e+00 0.000000e+00
1
Step 342000
Ar 1.014367e+00 0.000000e+00 0.000000e+00
1
Step 343000
Ar 1.015641e+00 0.000000e+00 0.000000e+00
1
Step 344000
Ar 1.016605e+00 0.000000e+00 0.000000e+00
1
Step 345000
Ar 1.009015e+00 0.000000e+00 0.000000e+00
1
Step 346000
Ar 7.219922e-01 0.000000e+00 0.000000e+00
1
Step 347000
Ar 1.238360e+00 0.000000e+00 0.000000e+00
1
Step 348000
Ar 7.493656e-01 0.000000e+00 0.000000e+00
1
Step 349000
Ar 1.037692e+00 0.000000e+00 0.000000e+00
1
Step 350000
Ar 4.955060e-01 0.000000e+00 0.000000e+00
1
Step 351000
Ar 1.098638e+00 0.000000e+00 0.000000e+00
1
Step 352000
Ar 1.035665e+00 0.000000e+00 0.000000e+00
1
Step 353000
Ar 1.035968e+00 0.000000e+00 0.000000e+00
1
Step 354000
Ar 9.016952e-01 0.000000e+00 0.000000e+00
1
Step 355000
Ar 1.019179e+00 0.000000e+00 0.000000e+00
1
Step 356000
Ar 9.922862e-01 0.000000e+00 0.000000e+00
1
Step 357000
Ar 9.841987e-01 0.000000e+00 0.000000e+00
1
Step 358000
Ar 1.110131e+00 0.000000e+00 0.000000e+00
1
Step 359000
Ar 1.109720e+00 0.000000e+00 0.000000e+00
1
Step 360000
Ar 1.176909e+00 0.000000e+00 0.000000e+00
1
Step 361000
Ar 8.342832e-01 0.000000e+00 0.000000e+00
1
Step 362000
Ar 1.011436e+00 0.000000e+00 0.000000e+00
1
Step 363000
Ar 1.181402e+00 0.000000e+00 0.000000e+00
1
Step 364000
Ar 1.142577e+00 0.000000e+00 0.000000e+00
1
Step 365000
Ar 1.019337e+00 0.000000e+00 0.000000e+00
1
Step 366000
Ar 1.111603e+00 0.000000e+00 0.000000e+00
1
Step 367000
Ar 1.062669e+00 0.000000e+00 0.000000e+00
1
Step 368000
Ar 8.180688e-01 0.000000e+00 0.000000e+00
1
Step 369000
Ar 1.025960e+00 0.000000e+00 0.000000e+00
1
Step 370000
Ar 1.251612e+00 0.000000e+00 0.000000e+00
1
Step 371000
Ar 1.005175e+00 0.000000e+00 0.000000e+00
1
Step 372000
Ar 9.908067e-01 0.000000e+00 0.000000e+00
1
Step 373000
Ar 1.079386e+00 0.000000e+00 0.000000e+00
1
Step 374000
Ar 1.085608e+00 0.000000e+00 0.000000e+00
1
Step 375000
Ar 1.210795e+00 0.000000e+00 0.000000e+00
1
Step 376000
Ar 9.939977e-01 0.000000e+00 0.000000e+00
1
Step 377000
Ar 1.012780e+00 0.000000e+00 0.000000e+00
1
Step 378000
Ar 9.773661e-01 0.000000e+00 0.000000e+00
1
Step 379000
Ar 8.493463e-01 0.000000e+00 0.000000e+00
1
Step 380000
Ar 7.330924e-01 0.000000e+00 0.000000e+00
1
Step 381000
Ar 8.956880e-01 0.000000e+00 0.000000e+00
1
Step 382000
Ar 7.990113e-01 0.000000e+00 0.000000e+00
1
Step 383000
Ar 9.847414e-01 0.000000e+00 0.000000e+00
1
Step 384000
Ar 9.907997e-01 0.000000e+00 0.000000e+00
1
Step 385000
Ar 1.096501e+00 0.000000e+00 0.000000e+00
1
Step 386000
Ar 1.015635e+00 0.000000e+00 0.000000e+00
1
Step 387000
Ar 8.323145e-01 0.000000e+00 0.000000e+00
1
Step 388000
Ar 1.238935e+00 0.000000e+00 0.000000e+00
1
Step 389000
Ar 1.144823e+00 0.000000e+00 0.000000e+00
1
Step 390000
Ar 1.105926e+00 0.000000e+00 0.000000e+00
1
Step 391000
Ar 1.113491e+00 0.000000e+00 0.000000e+00
1
Step 392000
Ar 1.114216e+00 0.000000e+00 0.000000e+00
1
Step 393000
Ar 1.113019e+00 0.000000e+00 0.000000e+00
1
Step 394000
Ar 1.118370e+00 0.000000e+00 0.000000e+00
1
Step 395000
Ar 1.113322e+00 0.000000e+00 0.000000e+00
1
Step 396000
Ar 1.120884e+00 0.000000e+00 0.000000e+00
1
Step 397000
Ar 1.114926e+00 0.000000e+00 0.000000e+00
1
Step 398000
Ar 1.124026e+00 0.000000e+00 0.000000e+00
1
Step 399000
Ar 1.121685e+00 0.000000e+00 0.000000e+00
1
Step 400000
Ar 1.120772e+00 0.000000e+00 0.000000e+00
1
Step 401000
Ar 1.129566e+00 0.000000e+00 0.000000e+00
1
Step 402000
Ar 1.123926e+00 0.000000e+00 0.000000e+00
1
Step 403000
Ar 1.130052e+00 0.000000e+00 0.000000e+00
1
Step 404000
Ar 1.132892e+00 0.000000e+00 0.000000e+00
1
Step 405000
Ar 1.131530e+00 0.000000e+00 0.000000e+00
1
Step 406000
Ar 1.010333e+00 0.000000e+00 0.000000e+00
1
Step 407000
Ar 7.929738e-01 0.000000e+00 0.000000e+00
1
Step 408000
Ar 1.167892e+00 0.000000e+00 0.000000e+00
1
Step 409000
Ar 1.029311e+00 0.000000e+00 0.000000e+00
1
Step 410000
Ar 9.842796e-01 0.000000e+00 0.000000e+00
1
Step 411000
Ar 9.102229e-01 0.000000e+00 0.000000e+00
1
Step 412000
Ar 1.136613e+00 0.000000e+00 0.000000e+00
1
Step 413000
Ar 1.116716e+00 0.000000e+00 0.000000e+00
1
Step 414000
Ar 1.139207e+00 0.000000e+00 0.000000e+00
1
Step 415000
Ar 1.004328e+00 0.000000e+00 0.000000e+00
1
Step 416000
Ar 1.126510e+00 0.000000e+00 0.000000e+00
1
Step 417000
Ar 9.323377e-01 0.000000e+00 0.000000e+00
1
Step 418000
Ar 9.338594e-01 0.000000e+00 0.000000e+00
1
Step 419000
Ar 1.118015e+00 0.000000e+00 0.000000e+00
1
Step 420000
Ar 9.324443e-01 0.000000e+00 0.000000e+00
1
Step 421000
Ar 1.008428e+00 0.000000e+00 0.000000e+00
1
Step 422000
Ar 1.031972e+00 0.000000e+00 0.000000e+00
1
Step 423000
Ar 1.034809e+00 0.000000e+00 0.000000e+00
1
Step 424000
Ar 1.045163e+00 0.000000e+00 0.000000e+00
1
Step 425000
Ar 7.277173e-01 0.000000e+00 0.000000e+00
1
Step 426000
Ar 1.137254e+00 0.000000e+00 0.000000e+00
1
Step 427000
Ar 1.037330e+00 0.000000e+00 0.000000e+00
1
Step 428000
Ar 8.796477e-01 0.000000e+00 0.000000e+00
1
Step 429000
Ar 8.350946e-01 0.000000e+00 0.000000e+00
1
Step 430000
Ar 7.673572e-01 0.000000e+00 0.000000e+00
1
Step 431000
Ar -5.245017e-01 0.000000e+00 0.000000e+00
1
Step 432000
Ar -1.000577e+00 0.000000e+00 0.000000e+00
1
Step 433000
Ar -1.000161e+00 0.000000e+00 0.000000e+00
1
Step 434000
Ar -1.003550e+00 0.000000e+00 0.000000e+00
1
Step 435000
Ar -1.003257e+00 0.000000e+00 0.000000e+00
1
Step 436000
Ar -9.904840e-01 0.000000e+00 0.000000e+00
1
Step 437000
Ar -9.725322e-01 0.000000e+00 0.000000e+00
1
Step 438000
Ar -9.809190e-01 0.000000e+00 0.000000e+00
1
Step 439000
Ar -9.751382e-01 0.000000e+00 0.000000e+00
1
Step 440000
Ar -9.898835e-01 0.000000e+00 0.000000e+00
1
Step 441000
Ar -9.751352e-01 0.000000e+00 0.000000e+00
1
Step 442000
Ar -9.780560e-01 0.000000e+00 0.000000e+00
1
Step 443000
Ar -9.753857e-01 0.000000e+00 0.000000e+00
1
Step 444000
Ar -9.684473e-01 0.000000e+00 0.000000e+00
1
Step 445000
Ar -9.769359e-01 0.000000e+00 0.000000e+00
1
Step 446000
Ar -1.016226e+00 0.000000e+00 0.000000e+00
1
Step 447000
Ar -1.020487e+00 0.000000e+00 0.000000e+00
1
Step 448000
Ar -1.021930e+00 0.000000e+00 0.000000e+00
1
Step 449000
Ar -1.027146e+00 0.000000e+00 0.000000e+00
1
Step 450000
Ar -1.019607e+00 0.000000e+00 0.000000e+00
1
Step 451000
Ar -9.612027e-01 0.000000e+00 0.000000e+00
1
Step 452000
Ar -9.533893e-01 0.000000e+00 0.000000e+00
1
Step 453000
Ar -9.627243e-01 0.000000e+00 0.000000e+00
1
Step 454000
Ar -9.620160e-01 0.000000e+00 0.000000e+00
1
Step 455000
Ar -9.604566e-01 0.000000e+00 0.000000e+00
1
Step 456000
Ar -9.459689e-01 0.000000e+00 0.000000e+00
1
Step 457000
Ar -1.013797e+00 0.000000e+00 0.000000e+00
1
Step 458000
Ar -1.030458e+00 0.000000e+00 0.000000e+00
1
Step 459000
Ar -1.032692e+00 0.000000e+00 0.000000e+00
1
Step 460000
Ar -1.031051e+00 0.000000e+00 0.000000e+00
1
Step 461000
Ar -1.043846e+00 0.000000e+00 0.000000e+00
1
Step 462000
Ar -1.042455e+00 0.000000e+00 0.000000e+00
1
Step 463000
Ar -1.044205e+00 0.000000e+00 0.000000e+00
1
Step 464000
Ar -1.042196e+00 0.000000e+00 0.000000e+00
1
Step 465000
Ar -1.047899e+00 0.000000e+00 0.000000e+00
1
Step 466000
Ar -9.476090e-01 0.000000e+00 0.000000e+00
1
Step 467000
Ar -9.511390e-01 0.000000e+00 0.000000e+00
1
Step 468000
Ar -9.504363e-01 0.000000e+00 0.000000e+00
1
Step 469000
Ar -9.480988e-01 0.000000e+00 0.000000e+00
1
Step 470000
Ar -9.495296e-01 0.000000e+00 0.000000e+00
1
Step 471000
Ar -9.351303e-01 0.000000e+00 0.000000e+00
1
Step 472000
Ar -9.353818e-01 0.000000e+00 0.000000e+00
1
Step 473000
Ar -9.350285e-01 0.000000e+00 0.000000e+00
1
Step 474000
Ar -9.365875e-01 0.000000e+00 0.000000e+00
1
Step 475000
Ar -9.361938e-01 0.000000e+00 0.000000e+00
1
Step 476000
Ar -1.046209e+00 0.000000e+00 0.000000e+00
1
Step 477000
Ar -9.215581e-01 0.000000e+00 0.000000e+00
1
Step 478000
Ar -9.270751e-01 0.000000e+00 0.000000e+00
1
Step 479000
Ar -9.213744e-01 0.000000e+00 0.000000e+00
1
Step 480000
Ar -9.284944e-01 0.000000e+00 0.000000e+00
1
Step 481000
Ar -9.687489e-01 0.000000e+00 0.000000e+00
1
Step 482000
Ar -1.067220e+00 0.000000e+00 0.000000e+00
1
Step 483000
Ar -1.062200e+00 0.000000e+00 0.000000e+00
1
Step 484000
Ar -1.059501e+00 0.000000e+00 0.000000e+00
1
Step 485000
Ar -1.063744e+00 0.000000e+00 0.000000e+00
1
Step 486000
Ar -9.188685e-01 0.000000e+00 0.000000e+00
1
Step 487000
Ar -9.195568e-01 0.000000e+00 0.000000e+00
1
Step 488000
Ar -9.160150e-01 0.000000e+00 0.000000e+00
1
Step 489000
Ar -9.188038e-01 0.000000e+00 0.000000e+00
1
Step 490000
Ar -9.155105e-01 0.000000e+00 0.000000e+00
1
Step 491000
Ar -1.078433e+00 0.000000e+00 0.000000e+00
1
Step 492000
Ar -1.030825e+00 0.000000e+00 0.000000e+00
1
Step 493000
Ar -1.040616e+00 0.000000e+00 0.000000e+00
1
Step 494000
Ar -9.930845e-01 0.000000e+00 0.000000e+00
1
Step 495000
Ar -1.017235e+00 0.000000e+00 0.000000e+00
1
Step 496000
Ar -1.034590e+00 0.000000e+00 0.000000e+00
1
Step 497000
Ar -1.082930e+00 0.000000e+00 0.000000e+00
1
Step 498000
Ar -1.077836e+00 0.000000e+00 0.000000e+00
1
Step 499000
Ar -1.074235e+00 0.000000e+00 0.000000e+00
1
Step 500000
Ar -1.154337e+00 0.000000e+00 0.000000e+00
1
Step 501000
Ar -1.075565e+00 0.000000e+00 0.000000e+00
1
Step 502000
Ar -1.073315e+00 0.000000e+00 0.000000e+00
1
Step 503000
Ar -1.161223e+00 0.000000e+00 0.000000e+00
1
Step 504000
Ar -9.031652e-01 0.000000e+00 0.000000e+00
1
Step 505000
Ar -9.072227e-01 0.000000e+00 0.000000e+00
1
Step 506000
Ar -8.986018e-01 0.000000e+00 0.000000e+00
1
Step 507000
Ar -9.011902e-01 0.000000e+00 0.000000e+00
1
Step 508000
Ar -8.995147e-01 0.000000e+00 0.000000e+00
1
Step 509000
Ar -8.988992e-01 0.000000e+00 0.000000e+00
1
Step 510000
Ar -8.976185e-01 0.000000e+00 0.000000e+00
1
Step 511000
Ar -9.978199e-01 0.000000e+00 0.000000e+00
1
Step 512000
Ar -9.834419e-01 0.000000e+00 0.000000e+00
1
Step 513000
Ar -8.851827e-01 0.000000e+00 0.000000e+00
1
Step 514000
Ar -8.845219e-01 0.000000e+00 0.000000e+00
1
Step 515000
Ar -8.866969e-01 0.000000e+00 0.000000e+00
1
Step 516000
Ar -1.073048e+00 0.000000e+00 0.000000e+00
1
Step 517000
Ar -1.074401e+00 0.000000e+00 0.000000e+00
1
Step 518000
Ar -1.076406e+00 0.000000e+00 0.000000e+00
1
Step 519000
Ar -1.074478e+00 0.000000e+00 0.000000e+00
1
Step 520000
Ar -1.075528e+00 0.000000e+00 0.000000e+00
1
Step 521000
Ar -1.050550e+00 0.000000e+00 0.000000e+00
1
Step 522000
Ar -1.041900e+00 0.000000e+00 0.000000e+00
1
Step 523000
Ar -1.042267e+00 0.000000e+00 0.000000e+00
1
Step 524000
Ar -1.054803e+00 0.000000e+00 0.000000e+00
1
Step 525000
Ar -1.020510e+00 0.000000e+00 0.000000e+00
1
Step 526000
Ar -1.089277e+00 0.000000e+00 0.000000e+00
1
Step 527000
Ar -1.083119e+00 0.000000e+00 0.000000e+00
1
Step 528000
Ar -1.085366e+00 0.000000e+00 0.000000e+00
1
Step 529000
Ar -1.034616e+00 0.000000e+00 0.000000e+00
1
Step 530000
Ar -1.085620e+00 0.000000e+00 0.000000e+00
1
Step 531000
Ar -1.055668e+00 0.000000e+00 0.000000e+00
1
Step 532000
Ar -9.028796e-01 0.000000e+00 0.000000e+00
1
Step 533000
Ar -1.048635e+00 0.000000e+00 0.000000e+00
1
Step 534000
Ar -1.095466e+00 0.000000e+00 0.000000e+00
1
Step 535000
Ar -8.765779e-01 0.000000e+00 0.000000e+00
1
Step 536000
Ar -8.668902e-01 0.000000e+00 0.000000e+00
1
Step 537000
Ar -8.670211e-01 0.000000e+00 0.000000e+00
1
Step 538000
Ar -8.660125e-01 0.000000e+00 0.000000e+00
1
Step 539000
Ar -9.976785e-01 0.000000e+00 0.000000e+00
1
Step 540000
Ar -9.526877e-01 0.000000e+00 0.000000e+00
1
Step 541000
Ar -1.092620e+00 0.000000e+00 0.000000e+00
1
Step 542000
Ar -1.097602e+00 0.000000e+00 0.000000e+00
1
Step 543000
Ar -1.096562e+00 0.000000e+00 0.000000e+00
1
Step 544000
Ar -1.099354e+00 0.000000e+00 0.000000e+00
1
Step 545000
Ar -1.094829e+00 0.000000e+00 0.000000e+00
1
Step 546000
Ar -1.106019e+00 0.000000e+00 0.000000e+00
1
Step 547000
Ar -1.105449e+00 0.000000e+00 0.000000e+00
1
Step 548000
Ar -1.101305e+00 0.000000e+00 0.000000e+00
1
Step 549000
Ar -1.106030e+00 0.000000e+00 0.000000e+00
1
Step 550000
Ar -1.105160e+00 0.000000e+00 0.000000e+00
1
Step 551000
Ar -9.095986e-01 0.000000e+00 0.000000e+00
1
Step 552000
Ar -1.089540e+00 0.000000e+00 0.000000e+00
1
Step 553000
Ar -1.040321e+00 0.000000e+00 0.000000e+00
1
Step 554000
Ar -9.761551e-01 0.000000e+00 0.000000e+00
1
Step 555000
Ar -1.136954e+00 0.000000e+00 0.000000e+00
1
Step 556000
Ar -9.097947e-01 0.000000e+00 0.000000e+00
1
Step 557000
Ar -1.054486e+00 0.000000e+00 0.000000e+00
1
Step 558000
Ar -8.675854e-01 0.000000e+00 0.000000e+00
1
Step 559000
Ar -8.672827e-01 0.000000e+00 0.000000e+00
1
Step 560000
Ar -8.640467e-01 0.000000e+00 0.000000e+00
1
Step 561000
Ar -1.052386e+00 0.000000e+00 0.000000e+00
1
Step 562000
Ar -1.024430e+00 0.000000e+00 0.000000e+00
1
Step 563000
Ar -9.313388e-01 0.000000e+00 0.000000e+00
1
Step 564000
Ar -8.582617e-01 0.000000e+00 0.000000e+00
1
Step 565000
Ar -1.050905e+00 0.000000e+00 0.000000e+00
1
Step 566000
Ar -8.797028e-01 0.000000e+00 0.000000e+00
1
Step 567000
Ar -1.000684e+00 0.000000e+00 0.000000e+00
1
Step 568000
Ar -9.053646e-01 0.000000e+00 0.000000e+00
1
Step 569000
Ar -7.069497e-01 0.000000e+00 0.000000e+00
1
Step 570000
Ar -9.636875e-01 0.000000e+00 0.000000e+00
1
Step 571000
Ar -9.411591e-01 0.000000e+00 0.000000e+00
1
Step 572000
Ar -1.034403e+00 0.000000e+00 0.000000e+00
1
Step 573000
Ar -7.020543e-01 0.000000e+00 0.000000e+00
1
Step 574000
Ar -1.114716e+00 0.000000e+00 0.000000e+00
1
Step 575000
Ar -1.114578e+00 0.000000e+00 0.000000e+00
1
Step 576000
Ar -1.093582e+00 0.000000e+00 0.000000e+00
1
Step 577000
Ar -9.926394e-01 0.000000e+00 0.000000e+00
1
Step 578000
Ar -1.060468e+00 0.000000e+00 0.000000e+00
1
Step 579000
Ar -1.077555e+00 0.000000e+00 0.000000e+00
1
Step 580000
Ar -9.963481e-01 0.000000e+00 0.000000e+00
1
Step 581000
Ar -1.041546e+00 0.000000e+00 0.000000e+00
1
Step 582000
Ar -1.156070e+00 0.000000e+00 0.000000e+00
1
Step 583000
Ar -8.943758e-01 0.000000e+00 0.000000e+00
1
Step 584000
Ar -1.130417e+00 0.000000e+00 0.000000e+00
1
Step 585000
Ar -9.342006e-01 0.000000e+00 0.000000e+00
1
Step 586000
Ar -1.035387e+00 0.000000e+00 0.000000e+00
1
Step 587000
Ar -8.626208e-01 0.000000e+00 0.000000e+00
1
Step 588000
Ar -9.759192e-01 0.000000e+00 0.000000e+00
1
Step 589000
Ar -1.010513e+00 0.000000e+00 0.000000e+00
1
Step 590000
Ar -1.025942e+00 0.000000e+00 0.000000e+00
1
Step 591000
Ar -8.279839e-01 0.000000e+00 0.000000e+00
1
Step 592000
Ar -9.867069e-01 0.000000e+00 0.000000e+00
1
Step 593000
Ar -9.818827e-01 0.000000e+00 0.000000e+00
1
Step 594000
Ar -8.596839e-01 0.000000e+00 0.000000e+00
1
Step 595000
Ar -8.168985e-01 0.000000e+00 0.000000e+00
1
Step 596000
Ar -8.009684e-01 0.000000e+00 0.000000e+00
1
Step 597000
Ar -1.077958e+00 0.000000e+00 0.000000e+00
1
Step 598000
Ar -4.961133e-01 0.000000e+00 0.000000e+00
1
Step 599000
Ar -9.876855e-01 0.000000e+00 0.000000e+00
1
Step 600000
Ar -1.199611e+00 0.000000e+00 0.000000e+00
1
Step 601000
Ar -1.197127e+00 0.000000e+00 0.000000e+00
1
Step 602000
Ar -9.801106e-01 0.000000e+00 0.000000e+00
1
Step 603000
Ar -6.571768e-01 0.000000e+00 0.000000e+00
1
Step 604000
Ar -7.923280e-01 0.000000e+00 0.000000e+00
1
Step 605000
Ar -8.235282e-01 0.000000e+00 0.000000e+00
1
Step 606000
Ar -1.120976e+00 0.000000e+00 0.000000e+00
1
Step 607000
Ar -8.069693e-01 0.000000e+00 0.000000e+00
1
Step 608000
Ar -8.048051e-01 0.000000e+00 0.000000e+00
1
Step 609000
Ar -8.068638e-01 0.000000e+00 0.000000e+00
1
Step 610000
Ar -8.052842e-01 0.000000e+00 0.000000e+00
1
Step 611000
Ar -7.208779e-01 0.000000e+00 0.000000e+00
1
Step 612000
Ar -8.558572e-01 0.000000e+00 0.000000e+00
1
Step 613000
Ar -7.345312e-01 0.000000e+00 0.000000e+00
1
Step 614000
Ar -1.039919e+00 0.000000e+00 0.000000e+00
1
Step 615000
Ar -8.555565e-01 0.000000e+00 0.000000e+00
1
Step 616000
Ar -9.858072e-01 0.000000e+00 0.000000e+00
1
Step 617000
Ar -9.127484e-01 0.000000e+00 0.000000e+00
1
Step 618000
Ar -8.666572e-01 0.000000e+00 0.000000e+00
1
Step 619000
Ar -1.102108e+00 0.000000e+00 0.000000e+00
1
Step 620000
Ar -7.136075e-01 0.000000e+00 0.000000e+00
1
Step 621000
Ar -9.447436e-01 0.000000e+00 0.000000e+00
1
Step 622000
Ar -8.152282e-01 0.000000e+00 0.000000e+00
1
Step 623000
Ar -9.010443e-01 0.000000e+00 0.000000e+00
1
Step 624000
Ar -1.042475e+00 0.000000e+00 0.000000e+00
1
Step 625000
Ar -7.642665e-01 0.000000e+00 0.000000e+00
1
Step 626000
Ar -7.575556e-01 0.000000e+00 0.000000e+00
1
Step 627000
Ar -6.717056e-01 0.000000e+00 0.000000e+00
1
Step 628000
Ar -1.215984e+00 0.000000e+00 0.000000e+00
1
Step 629000
Ar -7.964080e-01 0.000000e+00 0.000000e+00
1
Step 630000
Ar -8.467804e-01 0.000000e+00 0.000000e+00
1
Step 631000
Ar -7.880581e-01 0.000000e+00 0.000000e+00
1
Step 632000
Ar -5.636928e-01 0.000000e+00 0.000000e+00
1
Step 633000
Ar -9.733390e-01 0.000000e+00 0.000000e+00
1
Step 634000
Ar -9.399787e-01 0.000000e+00 0.000000e+00
1
Step 635000
Ar -6.664490e-01 0.000000e+00 0.000000e+00
1
Step 636000
Ar -1.143457e+00 0.000000e+00 0.000000e+00
1
Step 637000
Ar -1.119000e+00 0.000000e+00 0.000000e+00
1
Step 638000
Ar -1.136944e+00 0.000000e+00 0.000000e+00
1
Step 639000
Ar -9.695704e-01 0.000000e+00 0.000000e+00
1
Step 640000
Ar -9.826682e-01 0.000000e+00 0.000000e+00
1
Step 641000
Ar -1.203277e+00 0.000000e+00 0.000000e+00
1
Step 642000
Ar -1.124448e+00 0.000000e+00 0.000000e+00
1
Step 643000
Ar -1.171943e+00 0.000000e+00 0.000000e+00
1
Step 644000
Ar -9.343651e-01 0.000000e+00 0.000000e+00
1
Step 645000
Ar -8.092083e-01 0.000000e+00 0.000000e+00
1
Step 646000
Ar -9.964857e-01 0.000000e+00 0.000000e+00
1
Step 647000
Ar -9.436091e-01 0.000000e+00 0.000000e+00
1
Step 648000
Ar -9.334938e-01 0.000000e+00 0.000000e+00
1
Step 649000
Ar 1.000326e+00 0.000000e+00 0.000000e+00
1
Step 650000
Ar 8.325800e-01 0.000000e+00 0.000000e+00
1
Step 651000