1
Step 120000
Ar 6.450666e-01 0.000000e+00 0.000000e+00
1
Step 121000
Ar 1.158164e+00 0.000000e+00 0.000000e+00
1
Step 122000
Ar 1.042809e+00 0.000000e+00 0.000000e+00
1
Step 123000
Ar 9.271863e-01 0.000000e+00 0.000000e+00
1
Step 124000
Ar 1.217669e+00 0.000000e+00 0.000000e+00
1
Step 125000
Ar 9.578056e-01 0.000000e+00 0.000000e+00
1
Step 126000
Ar 1.155549e+00 0.000000e+00 0.000000e+00
1
Step 127000
Ar 1.144982e+00 0.000000e+00 0.000000e+00
1
Step 128000
Ar 1.235160e+00 0.000000e+00 0.000000e+00
1
Step 129000
Ar 1.027810e+00 0.000000e+00 0.000000e+00
1
Step 130000
Ar 1.042186e+00 0.000000e+00 0.000000e+00
1
Step 131000
Ar 9.210591e-01 0.000000e+00 0.000000e+00
1
Step 132000
Ar 6.850484e-01 0.000000e+00 0.000000e+00
1
Step 133000
Ar 7.064008e-01 0.000000e+00 0.000000e+00
1
Step 134000
Ar 7.214283e-01 0.000000e+00 0.000000e+00
1
Step 135000
Ar 7.430264e-01 0.000000e+00 0.000000e+00
1
Step 136000
Ar 7.968519e-01 0.000000e+00 0.000000e+00
1
Step 137000
Ar 7.395198e-01 0.000000e+00 0.000000e+00
1
Step 138000
Ar 7.059589e-01 0.000000e+00 0.000000e+00
1
Step 139000
Ar 7.744797e-01 0.000000e+00 0.000000e+00
1
Step 140000
Ar 7.000819e-01 0.000000e+00 0.000000e+00
1
Step 141000
Ar 7.893554e-01 0.000000e+00 0.000000e+00
1
Step 142000
Ar 8.015085e-01 0.000000e+00 0.000000e+00
1
Step 143000
Ar 8.167352e-01 0.000000e+00 0.000000e+00
1
Step 144000
Ar 5.464667e-01 0.000000e+00 0.000000e+00
1
Step 145000
Ar 6.792469e-01 0.000000e+00 0.000000e+00
1
Step 146000
Ar 8.199321e-01 0.000000e+00 0.000000e+00
1
Step 147000
Ar 6.993913e-01 0.000000e+00 0.000000e+00
1
Step 148000
Ar 8.237938e-01 0.000000e+00 0.000000e+00
1
Step 149000
Ar 7.477106e-01 0.000000e+00 0.000000e+00
1
Step 150000
Ar 7.867960e-01 0.000000e+00 0.000000e+00
1
Step 151000
Ar 8.143837e-01 0.000000e+00 0.000000e+00
1
Step 152000
Ar 7.325817e-01 0.000000e+00 0.000000e+00
1
Step 153000
Ar 8.129390e-01 0.000000e+00 0.000000e+00
1
Step 154000
Ar 7.936308e-01 0.000000e+00 0.000000e+00
1
Step 155000
Ar 7.420894e-01 0.000000e+00 0.000000e+00
1
Step 156000
Ar 8.300566e-01 0.000000e+00 0.000000e+00
1
Step 157000
Ar 7.943402e-01 0.000000e+00 0.000000e+00
1
Step 158000
Ar 7.973052e-01 0.000000e+00 0.000000e+00
1
Step 159000
Ar 8.037556e-01 0.000000e+00 0.000000e+00
1
Step 160000
Ar 8.205507e-01 0.000000e+00 0.000000e+00
1
Step 161000
Ar 8.194418e-01 0.000000e+00 0.000000e+00
1
Step 162000
Ar 8.236710e-01 0.000000e+00 0.000000e+00
1
Step 163000
Ar 7.925701e-01 0.000000e+00 0.000000e+00
1
Step 164000
Ar 8.088610e-01 0.000000e+00 0.000000e+00
1
Step 165000
Ar 8.172708e-01 0.000000e+00 0.000000e+00
1
Step 166000
Ar 8.228344e-01 0.000000e+00 0.000000e+00
1
Step 167000
Ar 8.107484e-01 0.000000e+00 0.000000e+00
1
Step 168000
Ar 8.118660e-01 0.000000e+00 0.000000e+00
1
Step 169000
Ar 8.245539e-01 0.000000e+00 0.000000e+00
1
Step 170000
Ar 7.993304e-01 0.000000e+00 0.000000e+00
1
Step 171000
Ar 8.214154e-01 0.000000e+00 0.000000e+00
1
Step 172000
Ar 8.269559e-01 0.000000e+00 0.000000e+00
1
Step 173000
Ar 8.204834e-01 0.000000e+00 0.000000e+00
1
Step 174000
Ar 8.264521e-01 0.000000e+00 0.000000e+00
1
Step 175000
Ar 1.005912e+00 0.000000e+00 0.000000e+00
1
Step 176000
Ar 1.030732e+00 0.000000e+00 0.000000e+00
1
Step 177000
Ar 1.006795e+00 0.000000e+00 0.000000e+00
1
Step 178000
Ar 1.013545e+00 0.000000e+00 0.000000e+00
1
Step 179000
Ar 1.005591e+00 0.000000e+00 0.000000e+00
1
Step 180000
Ar 1.008579e+00 0.000000e+00 0.000000e+00
1
Step 181000
Ar 1.011446e+00 0.000000e+00 0.000000e+00
1
Step 182000
Ar 1.006439e+00 0.000000e+00 0.000000e+00
1
Step 183000
Ar 1.255115e+00 0.000000e+00 0.000000e+00
1
Step 184000
Ar 1.216967e+00 0.000000e+00 0.000000e+00
1
Step 185000
Ar 1.191961e+00 0.000000e+00 0.000000e+00
1
Step 186000
Ar 1.183963e+00 0.000000e+00 0.000000e+00
1
Step 187000
Ar 1.183600e+00 0.000000e+00 0.000000e+00
1
Step 188000
Ar 1.185173e+00 0.000000e+00 0.000000e+00
1
Step 189000
Ar 1.206269e+00 0.000000e+00 0.000000e+00
1
Step 190000
Ar 1.192506e+00 0.000000e+00 0.000000e+00
1
Step 191000
Ar 1.183007e+00 0.000000e+00 0.000000e+00
1
Step 192000
Ar 1.177287e+00 0.000000e+00 0.000000e+00
1
Step 193000
Ar 1.179490e+00 0.000000e+00 0.000000e+00
1
Step 194000
Ar 1.194787e+00 0.000000e+00 0.000000e+00
1
Step 195000
Ar 1.243465e+00 0.000000e+00 0.000000e+00
1
Step 196000
Ar 1.256827e+00 0.000000e+00 0.000000e+00
1
Step 197000
Ar 1.273688e+00 0.000000e+00 0.000000e+00
1
Step 198000
Ar 1.281992e+00 0.000000e+00 0.000000e+00
1
Step 199000
Ar 1.266452e+00 0.000000e+00 0.000000e+00
1
Step 200000
Ar 1.257970e+00 0.000000e+00 0.000000e+00
1
Step 201000
Ar 1.423601e+00 0.000000e+00 0.000000e+00
1
Step 202000
Ar 1.446353e+00 0.000000e+00 0.000000e+00
1
Step 203000
Ar 1.440966e+00 0.000000e+00 0.000000e+00
1
Step 204000
Ar 1.188542e+00 0.000000e+00 0.000000e+00
1
Step 205000
Ar 1.079411e+00 0.000000e+00 0.000000e+00
1
Step 206000
Ar 1.144081e+00 0.000000e+00 0.000000e+00
1
Step 207000
Ar 1.100422e+00 0.000000e+00 0.000000e+00
1
Step 208000
Ar 1.123643e+00 0.000000e+00 0.000000e+00
1
Step 209000
Ar 1.146206e+00 0.000000e+00 0.000000e+00
1
Step 210000
Ar 1.095476e+00 0.000000e+00 0.000000e+00
1
Step 211000
Ar 1.126662e+00 0.000000e+00 0.000000e+00
1
Step 212000
Ar 1.130415e+00 0.000000e+00 0.000000e+00
1
Step 213000
Ar 1.094158e+00 0.000000e+00 0.000000e+00
1
Step 214000
Ar 1.071528e+00 0.000000e+00 0.000000e+00
1
Step 215000
Ar 1.065956e+00 0.000000e+00 0.000000e+00
1
Step 216000
Ar 1.072291e+00 0.000000e+00 0.000000e+00
1
Step 217000
Ar 1.067011e+00 0.000000e+00 0.000000e+00
1
Step 218000
Ar 1.067699e+00 0.000000e+00 0.000000e+00
1
Step 219000
Ar 1.078383e+00 0.000000e+00 0.000000e+00
1
Step 220000
Ar 1.075290e+00 0.000000e+00 0.000000e+00
1
Step 221000
Ar 1.061306e+00 0.000000e+00 0.000000e+00
1
Step 222000
Ar 1.056012e+00 0.000000e+00 0.000000e+00
1
Step 223000
Ar 1.058606e+00 0.000000e+00 0.000000e+00
1
Step 224000
Ar 1.085265e+00 0.000000e+00 0.000000e+00
1
Step 225000
Ar 1.060100e+00 0.000000e+00 0.000000e+00
1
Step 226000
Ar 1.090942e+00 0.000000e+00 0.000000e+00
1
Step 227000
Ar 1.067840e+00 0.000000e+00 0.000000e+00
1
Step 228000
Ar 1.061705e+00 0.000000e+00 0.000000e+00
1
Step 229000
Ar 1.088840e+00 0.000000e+00 0.000000e+00
1
Step 230000
Ar 1.086067e+00 0.000000e+00 0.000000e+00
1
Step 231000
Ar 1.090964e+00 0.000000e+00 0.000000e+00
1
Step 232000
Ar 1.075603e+00 0.000000e+00 0.000000e+00
1
Step 233000
Ar 1.075336e+00 0.000000e+00 0.000000e+00
1
Step 234000
Ar 1.075604e+00 0.000000e+00 0.000000e+00
1
Step 235000
Ar 1.083149e+00 0.000000e+00 0.000000e+00
1
Step 236000
Ar 1.087055e+00 0.000000e+00 0.000000e+00
1
Step 237000
Ar 1.082877e+00 0.000000e+00 0.000000e+00
1
Step 238000
Ar 1.082577e+00 0.000000e+00 0.000000e+00
1
Step 239000
Ar 1.086089e+00 0.000000e+00 0.000000e+00
1
Step 240000
Ar 6.723828e-01 0.000000e+00 0.000000e+00
1
Step 241000
Ar 6.964333e-01 0.000000e+00 0.000000e+00
1
Step 242000
Ar 6.907584e-01 0.000000e+00 0.000000e+00
1
Step 243000
Ar 6.960118e-01 0.000000e+00 0.000000e+00
1
Step 244000
Ar 6.962492e-01 0.000000e+00 0.000000e+00
1
Step 245000
Ar 6.240975e-01 0.000000e+00 0.000000e+00
1
Step 246000
Ar 6.921271e-01 0.000000e+00 0.000000e+00
1
Step 247000
Ar 5.999684e-01 0.000000e+00 0.000000e+00
1
Step 248000
Ar 6.487910e-01 0.000000e+00 0.000000e+00
1
Step 249000
Ar 6.313907e-01 0.000000e+00 0.000000e+00
1
Step 250000
Ar 6.451320e-01 0.000000e+00 0.000000e+00
1
Step 251000
Ar 6.219587e-01 0.000000e+00 0.000000e+00
1
Step 252000
Ar 5.780025e-01 0.000000e+00 0.000000e+00
1
Step 253000
Ar 6.264028e-01 0.000000e+00 0.000000e+00
1
Step 254000
Ar 5.710435e-01 0.000000e+00 0.000000e+00
1
Step 255000
Ar 6.561358e-01 0.000000e+00 0.000000e+00
1
Step 256000
Ar 6.602657e-01 0.000000e+00 0.000000e+00
1
Step 257000
Ar 6.278640e-01 0.000000e+00 0.000000e+00
1
Step 258000
Ar 6.532855e-01 0.000000e+00 0.000000e+00
1
Step 259000
Ar 5.751311e-01 0.000000e+00 0.000000e+00
1
Step 260000
Ar 5.969083e-01 0.000000e+00 0.000000e+00
1
Step 261000
Ar 5.850683e-01 0.000000e+00 0.000000e+00
1
Step 262000
Ar 5.872113e-01 0.000000e+00 0.000000e+00
1
Step 263000
Ar 6.099986e-01 0.000000e+00 0.000000e+00
1
Step 264000
Ar 6.328147e-01 0.000000e+00 0.000000e+00
1
Step 265000
Ar 6.245765e-01 0.000000e+00 0.000000e+00
1
Step 266000
Ar 6.042534e-01 0.000000e+00 0.000000e+00
1
Step 267000
Ar 6.583109e-01 0.000000e+00 0.000000e+00
1
Step 268000
Ar 6.604305e-01 0.000000e+00 0.000000e+00
1
Step 269000
Ar 6.589444e-01 0.000000e+00 0.000000e+00
1
Step 270000
Ar 6.586019e-01 0.000000e+00 0.000000e+00
1
Step 271000
Ar 6.570220e-01 0.000000e+00 0.000000e+00
1
Step 272000
Ar 1.048818e+00 0.000000e+00 0.000000e+00
1
Step 273000
Ar 1.051037e+00 0.000000e+00 0.000000e+00
1
Step 274000
Ar 1.005758e+00 0.000000e+00 0.000000e+00
1
Step 275000
Ar 9.803681e-01 0.000000e+00 0.000000e+00
1
Step 276000
Ar 9.868674e-01 0.000000e+00 0.000000e+00
1
Step 277000
Ar 8.637788e-01 0.000000e+00 0.000000e+00
1
Step 278000
Ar 8.527440e-01 0.000000e+00 0.000000e+00
1
Step 279000
Ar 9.247846e-01 0.000000e+00 0.000000e+00
1
Step 280000
Ar 9.663471e-01 0.000000e+00 0.000000e+00
1
Step 281000
Ar 9.660914e-01 0.000000e+00 0.000000e+00
1
Step 282000
Ar 9.652046e-01 0.000000e+00 0.000000e+00
1
Step 283000
Ar 9.609970e-01 0.000000e+00 0.000000e+00
1
Step 284000
Ar 9.696800e-01 0.000000e+00 0.000000e+00
1
Step 285000
Ar 9.711455e-01 0.000000e+00 0.000000e+00
1
Step 286000
Ar 1.133652e+00 0.000000e+00 0.000000e+00
1
Step 287000
Ar 1.159086e+00 0.000000e+00 0.000000e+00
1
Step 288000
Ar 1.156758e+00 0.000000e+00 0.000000e+00
1
Step 289000
Ar 1.153181e+00 0.000000e+00 0.000000e+00
1
Step 290000
Ar 1.031154e+00 0.000000e+00 0.000000e+00
1
Step 291000
Ar 9.235554e-01 0.000000e+00 0.000000e+00
1
Step 292000
Ar 9.448660e-01 0.000000e+00 0.000000e+00
1
Step 293000
Ar 9.315849e-01 0.000000e+00 0.000000e+00
1
Step 294000
Ar 9.147200e-01 0.000000e+00 0.000000e+00
1
Step 295000
Ar 9.219488e-01 0.000000e+00 0.000000e+00
1
Step 296000
Ar 9.169548e-01 0.000000e+00 0.000000e+00
1
Step 297000
Ar 9.408486e-01 0.000000e+00 0.000000e+00
1
Step 298000
Ar 9.431345e-01 0.000000e+00 0.000000e+00
1
Step 299000
Ar 9.453900e-01 0.000000e+00 0.000000e+00
1
Step 300000
Ar 9.492003e-01 0.000000e+00 0.000000e+00
1
Step 301000
Ar 9.473443e-01 0.000000e+00 0.000000e+00
1
Step 302000
Ar 9.470988e-01 0.000000e+00 0.000000e+00
1
Step 303000
Ar 9.454652e-01 0.000000e+00 0.000000e+00
1
Step 304000
Ar 9.448261e-01 0.000000e+00 0.000000e+00
1
Step 305000
Ar 9.485574e-01 0.000000e+00 0.000000e+00
1
Step 306000
Ar 8.930280e-01 0.000000e+00 0.000000e+00
1
Step 307000
Ar 8.936105e-01 0.000000e+00 0.000000e+00
1
Step 308000
Ar 8.888984e-01 0.000000e+00 0.000000e+00
1
Step 309000
Ar 8.901155e-01 0.000000e+00 0.000000e+00
1
Step 310000
Ar 8.893887e-01 0.000000e+00 0.000000e+00
1
Step 311000
Ar 8.926471e-01 0.000000e+00 0.000000e+00
1
Step 312000
Ar 8.849479e-01 0.000000e+00 0.000000e+00
1
Step 313000
Ar 8.885714e-01 0.000000e+00 0.000000e+00
1
Step 314000
Ar 8.913397e-01 0.000000e+00 0.000000e+00
1
Step 315000
Ar 1.074190e+00 0.000000e+00 0.000000e+00
1
Step 316000
Ar 1.076514e+00 0.000000e+00 0.000000e+00
1
Step 317000
Ar 1.072622e+00 0.000000e+00 0.000000e+00
1
Step 318000
Ar 1.076235e+00 0.000000e+00 0.000000e+00
1
Step 319000
Ar 1.078459e+00 0.000000e+00 0.000000e+00
1
Step 320000
Ar 1.135660e+00 0.000000e+00 0.000000e+00
1
Step 321000
Ar 1.133944e+00 0.000000e+00 0.000000e+00
1
Step 322000
Ar 1.117432e+00 0.000000e+00 0.000000e+00
1
Step 323000
Ar 1.127352e+00 0.000000e+00 0.000000e+00
1
Step 324000
Ar 1.122755e+00 0.000000e+00 0.000000e+00
1
Step 325000
Ar 1.119722e+00 0.000000e+00 0.000000e+00
1
Step 326000
Ar 1.121461e+00 0.000000e+00 0.000000e+00
1
Step 327000
Ar 1.127902e+00 0.000000e+00 0.000000e+00
1
Step 328000
Ar 1.129269e+00 0.000000e+00 0.000000e+00
1
Step 329000
Ar 1.111115e+00 0.000000e+00 0.000000e+00
1
Step 330000
Ar 1.125734e+00 0.000000e+00 0.000000e+00
1
Step 331000
Ar 1.117974e+00 0.000000e+00 0.000000e+00
1
Step 332000
Ar 1.122942e+00 0.000000e+00 0.000000e+00
1
Step 333000
Ar 1.117365e+00 0.000000e+00 0.000000e+00
1
Step 334000
Ar 1.118685e+00 0.000000e+00 0.000000e+00
1
Step 335000
Ar 1.126065e+00 0.000000e+00 0.000000e+00
1
Step 336000
Ar 1.122331e+00 0.000000e+00 0.000000e+00
1
Step 337000
Ar 1.129556e+00 0.000000e+00 0.000000e+00
1
Step 338000
Ar 1.130805e+00 0.000000e+00 0.000000e+00
1
Step 339000
Ar 1.127524e+00 0.000000e+00 0.000000e+00
1
Step 340000
Ar 1.127908e+00 0.000000e+00 0.000000e+00
1
Step 341000
Ar 1.126711e+00 0.000000e+00 0.000000e+00
1
Step 342000
Ar 1.250188e+00 0.000000e+00 0.000000e+00
1
Step 343000
Ar 1.206418e+00 0.000000e+00 0.000000e+00
1
Step 344000
Ar 1.207581e+00 0.000000e+00 0.000000e+00
1
Step 345000
Ar 1.209984e+00 0.000000e+00 0.000000e+00
1
Step 346000
Ar 1.207651e+00 0.000000e+00 0.000000e+00
1
Step 347000
Ar 1.206967e+00 0.000000e+00 0.000000e+00
1
Step 348000
Ar 1.206844e+00 0.000000e+00 0.000000e+00
1
Step 349000
Ar 1.212214e+00 0.000000e+00 0.000000e+00
1
Step 350000
Ar 1.208396e+00 0.000000e+00 0.000000e+00
1
Step 351000
Ar 1.205616e+00 0.000000e+00 0.000000e+00
1
Step 352000
Ar 1.205651e+00 0.000000e+00 0.000000e+00
1
Step 353000
Ar 1.225264e+00 0.000000e+00 0.000000e+00
1
Step 354000
Ar 1.229385e+00 0.000000e+00 0.000000e+00
1
Step 355000
Ar 1.318124e+00 0.000000e+00 0.000000e+00
1
Step 356000
Ar 1.330993e+00 0.000000e+00 0.000000e+00
1
Step 357000
Ar -2.889807e-01 0.000000e+00 0.000000e+00
1
Step 358000
Ar -8.828825e-01 0.000000e+00 0.000000e+00
1
Step 359000
Ar -1.034818e+00 0.000000e+00 0.000000e+00
1
Step 360000
Ar -7.780038e-01 0.000000e+00 0.000000e+00
1
Step 361000
Ar -7.503418e-01 0.000000e+00 0.000000e+00
1
Step 362000
Ar -9.432188e-01 0.000000e+00 0.000000e+00
1
Step 363000
Ar -8.362681e-01 0.000000e+00 0.000000e+00
1
Step 364000
Ar -9.529694e-01 0.000000e+00 0.000000e+00
1
Step 365000
Ar -9.640283e-01 0.000000e+00 0.000000e+00
1
Step 366000
Ar -8.945377e-01 0.000000e+00 0.000000e+00
1
Step 367000
Ar -9.112820e-01 0.000000e+00 0.000000e+00
1
Step 368000
Ar -8.917850e-01 0.000000e+00 0.000000e+00
1
Step 369000
Ar -1.002900e+00 0.000000e+00 0.000000e+00
1
Step 370000
Ar -9.888577e-01 0.000000e+00 0.000000e+00
1
Step 371000
Ar -9.596429e-01 0.000000e+00 0.000000e+00
1
Step 372000
Ar -9.632280e-01 0.000000e+00 0.000000e+00
1
Step 373000
Ar -8.764684e-01 0.000000e+00 0.000000e+00
1
Step 374000
Ar -9.581694e-01 0.000000e+00 0.000000e+00
1
Step 375000
Ar -9.257030e-01 0.000000e+00 0.000000e+00
1
Step 376000
Ar -9.774904e-01 0.000000e+00 0.000000e+00
1
Step 377000
Ar -8.423397e-01 0.000000e+00 0.000000e+00
1
Step 378000
Ar -9.107782e-01 0.000000e+00 0.000000e+00
1
Step 379000
Ar -9.081056e-01 0.000000e+00 0.000000e+00
1
Step 380000
Ar -9.912717e-01 0.000000e+00 0.000000e+00
1
Step 381000
Ar -1.023967e+00 0.000000e+00 0.000000e+00
1
Step 382000
Ar -8.401822e-01 0.000000e+00 0.000000e+00
1
Step 383000
Ar -8.938668e-01 0.000000e+00 0.000000e+00
1
Step 384000
Ar -9.473551e-01 0.000000e+00 0.000000e+00
1
Step 385000
Ar -9.374272e-01 0.000000e+00 0.000000e+00
1
Step 386000
Ar -9.834564e-01 0.000000e+00 0.000000e+00
1
Step 387000
Ar -9.487954e-01 0.000000e+00 0.000000e+00
1
Step 388000
Ar -9.618188e-01 0.000000e+00 0.000000e+00
1
Step 389000
Ar -1.256183e+00 0.000000e+00 0.000000e+00
1
Step 390000
Ar -1.158811e+00 0.000000e+00 0.000000e+00
1
Step 391000
Ar -1.234972e+00 0.000000e+00 0.000000e+00
1
Step 392000
Ar -1.147147e+00 0.000000e+00 0.000000e+00
1
Step 393000
Ar -1.137141e+00 0.000000e+00 0.000000e+00
1
Step 394000
Ar -1.113392e+00 0.000000e+00 0.000000e+00
1
Step 395000
Ar -1.130452e+00 0.000000e+00 0.000000e+00
1
Step 396000
Ar -1.110723e+00 0.000000e+00 0.000000e+00
1
Step 397000
Ar -1.145621e+00 0.000000e+00 0.000000e+00
1
Step 398000
Ar -8.528727e-01 0.000000e+00 0.000000e+00
1
Step 399000
Ar -7.844042e-01 0.000000e+00 0.000000e+00
1
Step 400000
Ar -8.710979e-01 0.000000e+00 0.000000e+00
1
Step 401000
Ar -7.635358e-01 0.000000e+00 0.000000e+00
1
Step 402000
Ar -8.118002e-01 0.000000e+00 0.000000e+00
1
Step 403000
Ar -8.741101e-01 0.000000e+00 0.000000e+00
1
Step 404000
Ar -8.865636e-01 0.000000e+00 0.000000e+00
1
Step 405000
Ar -9.698904e-01 0.000000e+00 0.000000e+00
1
Step 406000
Ar -9.569821e-01 0.000000e+00 0.000000e+00
1
Step 407000
Ar -9.481305e-01 0.000000e+00 0.000000e+00
1
Step 408000
Ar -9.487991e-01 0.000000e+00 0.000000e+00
1
Step 409000
Ar -9.594351e-01 0.000000e+00 0.000000e+00
1
Step 410000
Ar -9.545826e-01 0.000000e+00 0.000000e+00
1
Step 411000
Ar -9.510989e-01 0.000000e+00 0.000000e+00
1
Step 412000
Ar -9.771483e-01 0.000000e+00 0.000000e+00
1
Step 413000
Ar -9.359988e-01 0.000000e+00 0.000000e+00
1
Step 414000
Ar -9.290912e-01 0.000000e+00 0.000000e+00
1
Step 415000
Ar -9.756775e-01 0.000000e+00 0.000000e+00
1
Step 416000
Ar -9.366841e-01 0.000000e+00 0.000000e+00
1
Step 417000
Ar -9.471550e-01 0.000000e+00 0.000000e+00
1
Step 418000
Ar -9.640912e-01 0.000000e+00 0.000000e+00
1
Step 419000
Ar -9.306973e-01 0.000000e+00 0.000000e+00
1
Step 420000
Ar -9.720954e-01 0.000000e+00 0.000000e+00
1
Step 421000
Ar -9.086182e-01 0.000000e+00 0.000000e+00
1
Step 422000
Ar -9.819393e-01 0.000000e+00 0.000000e+00
1
Step 423000
Ar -9.816895e-01 0.000000e+00 0.000000e+00
1
Step 424000
Ar -9.611425e-01 0.000000e+00 0.000000e+00
1
Step 425000
Ar -9.534137e-01 0.000000e+00 0.000000e+00
1
Step 426000
Ar -9.522011e-01 0.000000e+00 0.000000e+00
1
Step 427000
Ar -9.393981e-01 0.000000e+00 0.000000e+00
1
Step 428000
Ar -9.343867e-01 0.000000e+00 0.000000e+00
1
Step 429000
Ar -9.137338e-01 0.000000e+00 0.000000e+00
1
Step 430000
Ar -9.183905e-01 0.000000e+00 0.000000e+00
1
Step 431000
Ar -9.338916e-01 0.000000e+00 0.000000e+00
1
Step 432000
Ar -9.187252e-01 0.000000e+00 0.000000e+00
1
Step 433000
Ar -9.361498e-01 0.000000e+00 0.000000e+00
1
Step 434000
Ar -9.206461e-01 0.000000e+00 0.000000e+00
1
Step 435000
Ar -9.213279e-01 0.000000e+00 0.000000e+00
1
Step 436000
Ar -9.334069e-01 0.000000e+00 0.000000e+00
1
Step 437000
Ar -9.187082e-01 0.000000e+00 0.000000e+00
1
Step 438000
Ar -9.330272e-01 0.000000e+00 0.000000e+00
1
Step 439000
Ar -9.163710e-01 0.000000e+00 0.000000e+00
1
Step 440000
Ar -9.280876e-01 0.000000e+00 0.000000e+00
1
Step 441000
Ar -9.387453e-01 0.000000e+00 0.000000e+00
1
Step 442000
Ar -9.315231e-01 0.000000e+00 0.000000e+00
1
Step 443000
Ar -9.175154e-01 0.000000e+00 0.000000e+00
1
Step 444000
Ar -1.111691e+00 0.000000e+00 0.000000e+00
1
Step 445000
Ar -1.124858e+00 0.000000e+00 0.000000e+00
1
Step 446000
Ar -1.128117e+00 0.000000e+00 0.000000e+00
1
Step 447000
Ar -1.061671e+00 0.000000e+00 0.000000e+00
1
Step 448000
Ar -1.075975e+00 0.000000e+00 0.000000e+00
1
Step 449000
Ar -1.077954e+00 0.000000e+00 0.000000e+00
1
Step 450000
Ar -1.072675e+00 0.000000e+00 0.000000e+00
1
Step 451000
Ar -1.078293e+00 0.000000e+00 0.000000e+00
1
Step 452000
Ar -1.065659e+00 0.000000e+00 0.000000e+00
1
Step 453000
Ar -1.082819e+00 0.000000e+00 0.000000e+00
1
Step 454000
Ar -1.077100e+00 0.000000e+00 0.000000e+00
1
Step 455000
Ar -1.020830e+00 0.000000e+00 0.000000e+00
1
Step 456000
Ar -1.017970e+00 0.000000e+00 0.000000e+00
1
Step 457000
Ar -1.014033e+00 0.000000e+00 0.000000e+00
1
Step 458000
Ar -1.007258e+00 0.000000e+00 0.000000e+00
1
Step 459000
Ar -1.016591e+00 0.000000e+00 0.000000e+00
1
Step 460000
Ar -1.131501e+00 0.000000e+00 0.000000e+00
1
Step 461000
Ar -1.150544e+00 0.000000e+00 0.000000e+00
1
Step 462000
Ar -1.142949e+00 0.000000e+00 0.000000e+00
1
Step 463000
Ar -1.119489e+00 0.000000e+00 0.000000e+00
1
Step 464000
Ar -1.131046e+00 0.000000e+00 0.000000e+00
1
Step 465000
Ar -1.034097e+00 0.000000e+00 0.000000e+00
1
Step 466000
Ar -1.012846e+00 0.000000e+00 0.000000e+00
1
Step 467000
Ar -1.014993e+00 0.000000e+00 0.000000e+00
1
Step 468000
Ar -1.015025e+00 0.000000e+00 0.000000e+00
1
Step 469000
Ar -1.014044e+00 0.000000e+00 0.000000e+00
1
Step 470000
Ar -1.013054e+00 0.000000e+00 0.000000e+00
1
Step 471000
Ar -1.012179e+00 0.000000e+00 0.000000e+00
1
Step 472000
Ar -1.011871e+00 0.000000e+00 0.000000e+00
1
Step 473000
Ar -1.016032e+00 0.000000e+00 0.000000e+00
1
Step 474000
Ar -1.013875e+00 0.000000e+00 0.000000e+00
1
Step 475000
Ar -1.011479e+00 0.000000e+00 0.000000e+00
1
Step 476000
Ar -1.013994e+00 0.000000e+00 0.000000e+00
1
Step 477000
Ar -1.014116e+00 0.000000e+00 0.000000e+00
1
Step 478000
Ar -1.012492e+00 0.000000e+00 0.000000e+00
1
Step 479000
Ar -1.014999e+00 0.000000e+00 0.000000e+00
1
Step 480000
Ar -1.014420e+00 0.000000e+00 0.000000e+00
1
Step 481000
Ar -1.002117e+00 0.000000e+00 0.000000e+00
1
Step 482000
Ar -9.403490e-01 0.000000e+00 0.000000e+00
1
Step 483000
Ar -9.345346e-01 0.000000e+00 0.000000e+00
1
Step 484000
Ar -9.362558e-01 0.000000e+00 0.000000e+00
1
Step 485000
Ar -9.393172e-01 0.000000e+00 0.000000e+00
1
Step 486000
Ar -9.773096e-01 0.000000e+00 0.000000e+00
1
Step 487000
Ar -1.060401e+00 0.000000e+00 0.000000e+00
1
Step 488000
Ar -1.062054e+00 0.000000e+00 0.000000e+00
1
Step 489000
Ar -1.063704e+00 0.000000e+00 0.000000e+00
1
Step 490000
Ar -1.063535e+00 0.000000e+00 0.000000e+00
1
Step 491000
Ar -1.061447e+00 0.000000e+00 0.000000e+00
1
Step 492000
Ar -1.060328e+00 0.000000e+00 0.000000e+00
1
Step 493000
Ar -1.060831e+00 0.000000e+00 0.000000e+00
1
Step 494000
Ar -1.062379e+00 0.000000e+00 0.000000e+00
1
Step 495000
Ar -1.055144e+00 0.000000e+00 0.000000e+00
1
Step 496000
Ar -1.061392e+00 0.000000e+00 0.000000e+00
1
Step 497000
Ar -1.058572e+00 0.000000e+00 0.000000e+00
1
Step 498000
Ar -1.062627e+00 0.000000e+00 0.000000e+00
1
Step 499000
Ar -1.064449e+00 0.000000e+00 0.000000e+00
1
Step 500000
Ar -9.616441e-01 0.000000e+00 0.000000e+00
1
Step 501000
Ar -9.093125e-01 0.000000e+00 0.000000e+00
1
Step 502000
Ar -1.103560e+00 0.000000e+00 0.000000e+00
1
Step 503000
Ar -1.133948e+00 0.000000e+00 0.000000e+00
1
Step 504000
Ar -1.151433e+00 0.000000e+00 0.000000e+00
1
Step 505000
Ar -1.149981e+00 0.000000e+00 0.000000e+00
1
Step 506000
Ar -1.151940e+00 0.000000e+00 0.000000e+00
1
Step 507000
Ar -1.134269e+00 0.000000e+00 0.000000e+00
1
Step 508000
Ar -1.117776e+00 0.000000e+00 0.000000e+00
1
Step 509000
Ar -7.473034e-01 0.000000e+00 0.000000e+00
1
Step 510000
Ar -6.358305e-01 0.000000e+00 0.000000e+00
1
Step 511000
Ar -7.492731e-01 0.000000e+00 0.000000e+00
1
Step 512000
Ar -7.353959e-01 0.000000e+00 0.000000e+00
1
Step 513000
Ar -7.750483e-01 0.000000e+00 0.000000e+00
1
Step 514000
Ar -1.227184e+00 0.000000e+00 0.000000e+00
1
Step 515000
Ar -1.256371e+00 0.000000e+00 0.000000e+00
1
Step 516000
Ar -1.210532e+00 0.000000e+00 0.000000e+00
1
Step 517000
Ar -1.269095e+00 0.000000e+00 0.000000e+00
1
Step 518000
Ar -1.257524e+00 0.000000e+00 0.000000e+00
1
Step 519000
Ar -1.239455e+00 0.000000e+00 0.000000e+00
1
Step 520000
Ar -1.232616e+00 0.000000e+00 0.000000e+00
1
Step 521000
Ar -1.224916e+00 0.000000e+00 0.000000e+00
1
Step 522000
Ar -1.261485e+00 0.000000e+00 0.000000e+00
1
Step 523000
Ar -1.275524e+00 0.000000e+00 0.000000e+00
1
Step 524000
Ar -1.274568e+00 0.000000e+00 0.000000e+00
1
Step 525000
Ar -1.289305e+00 0.000000e+00 0.000000e+00
1
Step 526000
Ar -9.124156e-01 0.000000e+00 0.000000e+00
1
Step 527000
Ar -9.085152e-01 0.000000e+00 0.000000e+00
1
Step 528000
Ar -6.982626e-01 0.000000e+00 0.000000e+00
1
Step 529000
Ar -6.811773e-01 0.000000e+00 0.000000e+00
1
Step 530000
Ar -6.185065e-01 0.000000e+00 0.000000e+00
1
Step 531000
Ar -7.397703e-01 0.000000e+00 0.000000e+00
1
Step 532000
Ar -7.518936e-01 0.000000e+00 0.000000e+00
1
Step 533000
Ar -8.000665e-01 0.000000e+00 0.000000e+00
1
Step 534000
Ar -7.514044e-01 0.000000e+00 0.000000e+00
1
Step 535000
Ar -6.683307e-01 0.000000e+00 0.000000e+00
1
Step 536000
Ar -6.272771e-01 0.000000e+00 0.000000e+00
1
Step 537000
Ar -6.358370e-01 0.000000e+00 0.000000e+00
1
Step 538000
Ar -5.659184e-01 0.000000e+00 0.000000e+00
1
Step 539000
Ar -7.157934e-01 0.000000e+00 0.000000e+00
1
Step 540000
Ar -7.282501e-01 0.000000e+00 0.000000e+00
1
Step 541000
Ar -7.081731e-01 0.000000e+00 0.000000e+00
1
Step 542000
Ar -7.027284e-01 0.000000e+00 0.000000e+00
1
Step 543000
Ar -6.944351e-01 0.000000e+00 0.000000e+00
1
Step 544000
Ar -7.014740e-01 0.000000e+00 0.000000e+00
1
Step 545000
Ar -1.244639e+00 0.000000e+00 0.000000e+00
1
Step 546000
Ar -1.239559e+00 0.000000e+00 0.000000e+00
1
Step 547000
Ar -1.229449e+00 0.000000e+00 0.000000e+00
1
Step 548000
Ar -1.230241e+00 0.000000e+00 0.000000e+00
1
Step 549000
Ar -1.234384e+00 0.000000e+00 0.000000e+00
1
Step 550000
Ar -1.360848e+00 0.000000e+00 0.000000e+00
1
Step 551000
Ar -1.356043e+00 0.000000e+00 0.000000e+00
1
Step 552000
Ar -1.365948e+00 0.000000e+00 0.000000e+00
1
Step 553000
Ar -1.360122e+00 0.000000e+00 0.000000e+00
1
Step 554000
Ar -1.350100e+00 0.000000e+00 0.000000e+00
1
Step 555000
Ar -1.347016e+00 0.000000e+00 0.000000e+00
1
Step 556000
Ar -1.375859e+00 0.000000e+00 0.000000e+00
1
Step 557000
Ar -1.363646e+00 0.000000e+00 0.000000e+00
1
Step 558000
Ar -1.385978e+00 0.000000e+00 0.000000e+00
1
Step 559000
Ar -1.391041e+00 0.000000e+00 0.000000e+00
1
Step 560000
Ar -1.355629e+00 0.000000e+00 0.000000e+00
1
Step 561000
Ar -1.410140e+00 0.000000e+00 0.000000e+00
1
Step 562000
Ar -1.398766e+00 0.000000e+00 0.000000e+00
1
Step 563000
Ar -1.386440e+00 0.000000e+00 0.000000e+00
1
Step 564000
Ar -1.373215e+00 0.000000e+00 0.000000e+00
1
Step 565000
Ar -1.382784e+00 0.000000e+00 0.000000e+00
1
Step 566000
Ar -1.408224e+00 0.000000e+00 0.000000e+00
1
Step 567000
Ar -1.394015e+00 0.000000e+00 0.000000e+00
1
Step 568000
Ar -1.410615e+00 0.000000e+00 0.000000e+00
1
Step 569000
Ar -1.374758e+00 0.000000e+00 0.000000e+00
1
Step 570000
Ar -1.387151e+00 0.000000e+00 0.000000e+00
1
Step 571000
Ar -1.407972e+00 0.000000e+00 0.000000e+00
1
Step 572000
Ar -1.371809e+00 0.000000e+00 0.000000e+00
1
Step 573000
Ar -1.373824e+00 0.000000e+00 0.000000e+00
1
Step 574000
Ar -1.386003e+00 0.000000e+00 0.000000e+00
1
Step 575000
Ar -1.381119e+00 0.000000e+00 0.000000e+00
1
Step 576000
Ar -1.241007e+00 0.000000e+00 0.000000e+00
1
Step 577000
Ar -1.135516e+00 0.000000e+00 0.000000e+00
1
Step 578000
Ar -1.260205e+00 0.000000e+00 0.000000e+00
1
Step 579000
Ar -1.198306e+00 0.000000e+00 0.000000e+00
1
Step 580000
Ar -1.198347e+00 0.000000e+00 0.000000e+00
1
Step 581000
Ar -1.199935e+00 0.000000e+00 0.000000e+00
1
Step 582000
Ar -1.200095e+00 0.000000e+00 0.000000e+00
1
Step 583000
Ar -1.196341e+00 0.000000e+00 0.000000e+00
1
Step 584000
Ar 4.360406e-01 0.000000e+00 0.000000e+00
1
Step 585000
Ar 3.301800e-01 0.000000e+00 0.000000e+00
1
Step 586000
Ar 2.661941e-02 0.000000e+00 0.000000e+00
1
Step 587000
Ar 4.641644e-01 0.000000e+00 0.000000e+00
1
Step 588000
Ar 4.510651e-01 0.000000e+00 0.000000e+00
1
Step 589000
Ar 3.757473e-01 0.000000e+00 0.000000e+00
1
Step 590000
Ar 4.589251e-01 0.000000e+00 0.000000e+00
1
Step 591000
Ar 4.436727e-01 0.000000e+00 0.000000e+00
1
Step 592000
Ar 3.973293e-01 0.000000e+00 0.000000e+00
1
Step 593000
Ar 4.841694e-01 0.000000e+00 0.000000e+00
1
Step 594000
Ar 4.785051e-01 0.000000e+00 0.000000e+00
1
Step 595000
Ar 3.984688e-01 0.000000e+00 0.000000e+00
1
Step 596000
Ar 9.719072e-02 0.000000e+00 0.000000e+00
1
Step 597000
Ar 4.210247e-01 0.000000e+00 0.000000e+00
1
Step 598000
Ar 4.289284e-01 0.000000e+00 0.000000e+00
1
Step 599000
Ar 4.134173e-01 0.000000e+00 0.000000e+00
1
Step 600000
Ar 2.533804e-01 0.000000e+00 0.000000e+00
1
Step 601000
Ar 3.005284e-01 0.000000e+00 0.000000e+00
1
Step 602000
Ar 3.906846e-01 0.000000e+00 0.000000e+00
1
Step 603000
Ar 4.125684e-01 0.000000e+00 0.000000e+00
1
Step 604000
Ar 4.167792e-01 0.000000e+00 0.000000e+00
1
Step 605000
Ar 4.174871e-01 0.000000e+00 0.000000e+00
1
Step 606000
Ar 3.443729e-01 0.000000e+00 0.000000e+00
1
Step 607000
Ar 1.019451e-01 0.000000e+00 0.000000e+00
1
Step 608000
Ar 2.868391e-01 0.000000e+00 0.000000e+00
1
Step 609000
Ar 8.731575e-02 0.000000e+00 0.000000e+00
1
Step 610000
Ar 2.715290e-01 0.000000e+00 0.000000e+00
1
Step 611000
Ar 8.044047e-02 0.000000e+00 0.000000e+00
1
Step 612000
Ar 1.487874e-01 0.000000e+00 0.000000e+00
1
Step 613000
Ar 1.187187e-01 0.000000e+00 0.000000e+00
1
Step 614000
Ar 9.475280e-02 0.000000e+00 0.000000e+00
1
Step 615000
Ar 9.648421e-02 0.000000e+00 0.000000e+00
1
Step 616000
Ar 9.146196e-02 0.000000e+00 0.000000e+00
1
Step 617000
Ar 5.478661e-01 0.000000e+00 0.000000e+00
1
Step 618000
Ar 6.097076e-01 0.000000e+00 0.000000e+00
1
Step 619000
Ar 5.739577e-01 0.000000e+00 0.000000e+00
1
Step 620000
Ar 5.891562e-01 0.000000e+00 0.000000e+00
1
Step 621000
Ar 5.791984e-01 0.000000e+00 0.000000e+00
1
Step 622000
Ar 5.844809e-01 0.000000e+00 0.000000e+00
1
Step 623000
Ar 5.775128e-01 0.000000e+00 0.000000e+00
1
Step 624000
Ar 5.846805e-01 0.000000e+00 0.000000e+00
1
Step 625000
Ar 5.787637e-01 0.000000e+00 0.000000e+00
1
Step 626000
Ar 5.851475e-01 0.000000e+00 0.000000e+00
1
Step 627000
Ar 5.878286e-01 0.000000e+00 0.000000e+00
1
Step 628000
Ar 5.848358e-01 0.000000e+00 0.000000e+00
1
Step 629000
Ar 5.827205e-01 0.000000e+00 0.000000e+00
1
Step 630000
Ar 5.853375e-01 0.000000e+00 0.000000e+00
1
Step 631000
Ar 5.738144e-01 0.000000e+00 0.000000e+00
1
Step 632000
Ar 5.699247e-01 0.000000e+00 0.000000e+00
1
Step 633000
Ar 5.273542e-01 0.000000e+00 0.000000e+00
1
Step 634000
Ar 5.341247e-01 0.000000e+00 0.000000e+00
1
Step 635000
Ar 5.170206e-01 0.000000e+00 0.000000e+00
1
Step 636000
Ar 5.206183e-01 0.000000e+00 0.000000e+00
1
Step 637000
Ar 5.123650e-01 0.000000e+00 0.000000e+00
1
Step 638000
Ar 5.269064e-01 0.000000e+00 0.000000e+00
1
Step 639000
Ar 5.300455e-01 0.000000e+00 0.000000e+00
1
Step 640000
Ar 5.220641e-01 0.000000e+00 0.000000e+00
1
Step 641000
Ar 5.337972e-01 0.000000e+00 0.000000e+00
1
Step 642000
Ar 5.221268e-01 0.000000e+00 0.000000e+00
1
Step 643000
Ar 5.356855e-01 0.000000e+00 0.000000e+00
1
Step 644000
Ar 5.292775e-01 0.000000e+00 0.000000e+00
1
Step 645000
Ar 5.390766e-01 0.000000e+00 0.000000e+00
1
Step 646000
Ar 5.358086e-01 0.000000e+00 0.000000e+00
1
Step 647000
Ar 5.264439e-01 0.000000e+00 0.000000e+00
1
Step 648000
Ar 5.398747e-01 0.000000e+00 0.000000e+00
1
Step 649000
Ar 5.425559e-01 0.000000e+00 0.000000e+00
1
Step 650000
Ar 5.388344e-01 0.000000e+00 0.000000e+00
1
Step 651000