1
Step 120000
Ar 7.524845e-01 0.000000e+00 0.000000e+00
1
Step 121000
Ar 1.100107e+00 0.000000e+00 0.000000e+00
1
Step 122000
Ar 1.029310e+00 0.000000e+00 0.000000e+00
1
Step 123000
Ar 1.129661e+00 0.000000e+00 0.000000e+00
1
Step 124000
Ar 9.941547e-01 0.000000e+00 0.000000e+00
1
Step 125000
Ar 1.076728e+00 0.000000e+00 0.000000e+00
1
Step 126000
Ar 9.153328e-01 0.000000e+00 0.000000e+00
1
Step 127000
Ar 7.468222e-01 0.000000e+00 0.000000e+00
1
Step 128000
Ar 8.996296e-01 0.000000e+00 0.000000e+00
1
Step 129000
Ar 1.017292e+00 0.000000e+00 0.000000e+00
1
Step 130000
Ar 1.053980e+00 0.000000e+00 0.000000e+00
1
Step 131000
Ar 8.879827e-01 0.000000e+00 0.000000e+00
1
Step 132000
Ar 9.996943e-01 0.000000e+00 0.000000e+00
1
Step 133000
Ar 9.883935e-01 0.000000e+00 0.000000e+00
1
Step 134000
Ar 9.974915e-01 0.000000e+00 0.000000e+00
1
Step 135000
Ar 9.170405e-01 0.000000e+00 0.000000e+00
1
Step 136000
Ar 9.574726e-01 0.000000e+00 0.000000e+00
1
Step 137000
Ar 1.020572e+00 0.000000e+00 0.000000e+00
1
Step 138000
Ar 9.398700e-01 0.000000e+00 0.000000e+00
1
Step 139000
Ar 9.608882e-01 0.000000e+00 0.000000e+00
1
Step 140000
Ar 9.896589e-01 0.000000e+00 0.000000e+00
1
Step 141000
Ar 1.110183e+00 0.000000e+00 0.000000e+00
1
Step 142000
Ar 1.182346e+00 0.000000e+00 0.000000e+00
1
Step 143000
Ar 1.143728e+00 0.000000e+00 0.000000e+00
1
Step 144000
Ar 1.090167e+00 0.000000e+00 0.000000e+00
1
Step 145000
Ar 1.153984e+00 0.000000e+00 0.000000e+00
1
Step 146000
Ar 1.169872e+00 0.000000e+00 0.000000e+00
1
Step 147000
Ar 1.246222e+00 0.000000e+00 0.000000e+00
1
Step 148000
Ar 1.225751e+00 0.000000e+00 0.000000e+00
1
Step 149000
Ar 1.199391e+00 0.000000e+00 0.000000e+00
1
Step 150000
Ar 1.271139e+00 0.000000e+00 0.000000e+00
1
Step 151000
Ar 1.190478e+00 0.000000e+00 0.000000e+00
1
Step 152000
Ar 1.205736e+00 0.000000e+00 0.000000e+00
1
Step 153000
Ar 1.183454e+00 0.000000e+00 0.000000e+00
1
Step 154000
Ar 1.187699e+00 0.000000e+00 0.000000e+00
1
Step 155000
Ar 1.249863e+00 0.000000e+00 0.000000e+00
1
Step 156000
Ar 8.463583e-01 0.000000e+00 0.000000e+00
1
Step 157000
Ar 8.073819e-01 0.000000e+00 0.000000e+00
1
Step 158000
Ar 7.326331e-01 0.000000e+00 0.000000e+00
1
Step 159000
Ar 7.450698e-01 0.000000e+00 0.000000e+00
1
Step 160000
Ar 8.709941e-01 0.000000e+00 0.000000e+00
1
Step 161000
Ar 6.626072e-01 0.000000e+00 0.000000e+00
1
Step 162000
Ar 8.190756e-01 0.000000e+00 0.000000e+00
1
Step 163000
Ar 8.017004e-01 0.000000e+00 0.000000e+00
1
Step 164000
Ar 8.406958e-01 0.000000e+00 0.000000e+00
1
Step 165000
Ar 8.299180e-01 0.000000e+00 0.000000e+00
1
Step 166000
Ar 7.591070e-01 0.000000e+00 0.000000e+00
1
Step 167000
Ar 7.838662e-01 0.000000e+00 0.000000e+00
1
Step 168000
Ar 5.806663e-01 0.000000e+00 0.000000e+00
1
Step 169000
Ar 7.392001e-01 0.000000e+00 0.000000e+00
1
Step 170000
Ar 7.475204e-01 0.000000e+00 0.000000e+00
1
Step 171000
Ar 6.608793e-01 0.000000e+00 0.000000e+00
1
Step 172000
Ar 6.984302e-01 0.000000e+00 0.000000e+00
1
Step 173000
Ar 6.858400e-01 0.000000e+00 0.000000e+00
1
Step 174000
Ar 6.587147e-01 0.000000e+00 0.000000e+00
1
Step 175000
Ar 6.779564e-01 0.000000e+00 0.000000e+00
1
Step 176000
Ar 6.274723e-01 0.000000e+00 0.000000e+00
1
Step 177000
Ar 6.493931e-01 0.000000e+00 0.000000e+00
1
Step 178000
Ar 5.663892e-01 0.000000e+00 0.000000e+00
1
Step 179000
Ar 6.521254e-01 0.000000e+00 0.000000e+00
1
Step 180000
Ar 6.518076e-01 0.000000e+00 0.000000e+00
1
Step 181000
Ar -8.950629e-01 0.000000e+00 0.000000e+00
1
Step 182000
Ar -1.087828e+00 0.000000e+00 0.000000e+00
1
Step 183000
Ar -9.322069e-01 0.000000e+00 0.000000e+00
1
Step 184000
Ar -8.708476e-01 0.000000e+00 0.000000e+00
1
Step 185000
Ar -9.931854e-01 0.000000e+00 0.000000e+00
1
Step 186000
Ar -1.057210e+00 0.000000e+00 0.000000e+00
1
Step 187000
Ar -1.111642e+00 0.000000e+00 0.000000e+00
1
Step 188000
Ar -1.115508e+00 0.000000e+00 0.000000e+00
1
Step 189000
Ar -1.026160e+00 0.000000e+00 0.000000e+00
1
Step 190000
Ar -1.066006e+00 0.000000e+00 0.000000e+00
1
Step 191000
Ar -1.162781e+00 0.000000e+00 0.000000e+00
1
Step 192000
Ar -1.091338e+00 0.000000e+00 0.000000e+00
1
Step 193000
Ar -1.137340e+00 0.000000e+00 0.000000e+00
1
Step 194000
Ar -1.109770e+00 0.000000e+00 0.000000e+00
1
Step 195000
Ar -1.103067e+00 0.000000e+00 0.000000e+00
1
Step 196000
Ar -1.077830e+00 0.000000e+00 0.000000e+00
1
Step 197000
Ar -1.084168e+00 0.000000e+00 0.000000e+00
1
Step 198000
Ar -1.088355e+00 0.000000e+00 0.000000e+00
1
Step 199000
Ar -1.089656e+00 0.000000e+00 0.000000e+00
1
Step 200000
Ar -1.086092e+00 0.000000e+00 0.000000e+00
1
Step 201000
Ar -1.006312e+00 0.000000e+00 0.000000e+00
1
Step 202000
Ar -1.024719e+00 0.000000e+00 0.000000e+00
1
Step 203000
Ar -1.040093e+00 0.000000e+00 0.000000e+00
1
Step 204000
Ar -1.028255e+00 0.000000e+00 0.000000e+00
1
Step 205000
Ar -1.010313e+00 0.000000e+00 0.000000e+00
1
Step 206000
Ar -1.166874e+00 0.000000e+00 0.000000e+00
1
Step 207000
Ar -1.142849e+00 0.000000e+00 0.000000e+00
1
Step 208000
Ar -1.228091e+00 0.000000e+00 0.000000e+00
1
Step 209000
Ar -1.144686e+00 0.000000e+00 0.000000e+00
1
Step 210000
Ar -1.154525e+00 0.000000e+00 0.000000e+00
1
Step 211000
Ar -1.181748e+00 0.000000e+00 0.000000e+00
1
Step 212000
Ar -1.193766e+00 0.000000e+00 0.000000e+00
1
Step 213000
Ar -1.179816e+00 0.000000e+00 0.000000e+00
1
Step 214000
Ar -1.203224e+00 0.000000e+00 0.000000e+00
1
Step 215000
Ar -1.268740e+00 0.000000e+00 0.000000e+00
1
Step 216000
Ar -1.224347e+00 0.000000e+00 0.000000e+00
1
Step 217000
Ar -1.174653e+00 0.000000e+00 0.000000e+00
1
Step 218000
Ar -1.196167e+00 0.000000e+00 0.000000e+00
1
Step 219000
Ar -1.199468e+00 0.000000e+00 0.000000e+00
1
Step 220000
Ar -1.185523e+00 0.000000e+00 0.000000e+00
1
Step 221000
Ar -1.169309e+00 0.000000e+00 0.000000e+00
1
Step 222000
Ar -1.169959e+00 0.000000e+00 0.000000e+00
1
Step 223000
Ar -1.163690e+00 0.000000e+00 0.000000e+00
1
Step 224000
Ar -1.176246e+00 0.000000e+00 0.000000e+00
1
Step 225000
Ar -1.171771e+00 0.000000e+00 0.000000e+00
1
Step 226000
Ar -7.969619e-01 0.000000e+00 0.000000e+00
1
Step 227000
Ar -9.152409e-01 0.000000e+00 0.000000e+00
1
Step 228000
Ar -8.774814e-01 0.000000e+00 0.000000e+00
1
Step 229000
Ar -8.949898e-01 0.000000e+00 0.000000e+00
1
Step 230000
Ar -9.284692e-01 0.000000e+00 0.000000e+00
1
Step 231000
Ar -9.670735e-01 0.000000e+00 0.000000e+00
1
Step 232000
Ar -9.734015e-01 0.000000e+00 0.000000e+00
1
Step 233000
Ar -9.501989e-01 0.000000e+00 0.000000e+00
1
Step 234000
Ar -9.689652e-01 0.000000e+00 0.000000e+00
1
Step 235000
Ar -9.766492e-01 0.000000e+00 0.000000e+00
1
Step 236000
Ar -9.475794e-01 0.000000e+00 0.000000e+00
1
Step 237000
Ar -9.580955e-01 0.000000e+00 0.000000e+00
1
Step 238000
Ar -9.454734e-01 0.000000e+00 0.000000e+00
1
Step 239000
Ar -9.396723e-01 0.000000e+00 0.000000e+00
1
Step 240000
Ar -9.509712e-01 0.000000e+00 0.000000e+00
1
Step 241000
Ar -8.540015e-01 0.000000e+00 0.000000e+00
1
Step 242000
Ar -9.081527e-01 0.000000e+00 0.000000e+00
1
Step 243000
Ar -8.606131e-01 0.000000e+00 0.000000e+00
1
Step 244000
Ar -8.800580e-01 0.000000e+00 0.000000e+00
1
Step 245000
Ar -8.176297e-01 0.000000e+00 0.000000e+00
1
Step 246000
Ar -8.980446e-01 0.000000e+00 0.000000e+00
1
Step 247000
Ar -8.519239e-01 0.000000e+00 0.000000e+00
1
Step 248000
Ar -8.700431e-01 0.000000e+00 0.000000e+00
1
Step 249000
Ar -8.384419e-01 0.000000e+00 0.000000e+00
1
Step 250000
Ar -8.584368e-01 0.000000e+00 0.000000e+00
1
Step 251000
Ar -8.964093e-01 0.000000e+00 0.000000e+00
1
Step 252000
Ar -9.065602e-01 0.000000e+00 0.000000e+00
1
Step 253000
Ar -8.770166e-01 0.000000e+00 0.000000e+00
1
Step 254000
Ar -9.008779e-01 0.000000e+00 0.000000e+00
1
Step 255000
Ar -8.882415e-01 0.000000e+00 0.000000e+00
1
Step 256000
Ar -8.697665e-01 0.000000e+00 0.000000e+00
1
Step 257000
Ar -8.750413e-01 0.000000e+00 0.000000e+00
1
Step 258000
Ar -8.765892e-01 0.000000e+00 0.000000e+00
1
Step 259000
Ar -8.762631e-01 0.000000e+00 0.000000e+00
1
Step 260000
Ar -8.673107e-01 0.000000e+00 0.000000e+00
1
Step 261000
Ar -1.034040e+00 0.000000e+00 0.000000e+00
1
Step 262000
Ar -1.049969e+00 0.000000e+00 0.000000e+00
1
Step 263000
Ar -1.027092e+00 0.000000e+00 0.000000e+00
1
Step 264000
Ar -1.041403e+00 0.000000e+00 0.000000e+00
1
Step 265000
Ar -1.044273e+00 0.000000e+00 0.000000e+00
1
Step 266000
Ar -1.026226e+00 0.000000e+00 0.000000e+00
1
Step 267000
Ar -1.022608e+00 0.000000e+00 0.000000e+00
1
Step 268000
Ar -1.025622e+00 0.000000e+00 0.000000e+00
1
Step 269000
Ar -1.025843e+00 0.000000e+00 0.000000e+00
1
Step 270000
Ar -1.026733e+00 0.000000e+00 0.000000e+00
1
Step 271000
Ar -1.283082e+00 0.000000e+00 0.000000e+00
1
Step 272000
Ar -1.336676e+00 0.000000e+00 0.000000e+00
1
Step 273000
Ar -1.288177e+00 0.000000e+00 0.000000e+00
1
Step 274000
Ar -1.304114e+00 0.000000e+00 0.000000e+00
1
Step 275000
Ar -1.401752e+00 0.000000e+00 0.000000e+00
1
Step 276000
Ar -1.424420e+00 0.000000e+00 0.000000e+00
1
Step 277000
Ar -1.414770e+00 0.000000e+00 0.000000e+00
1
Step 278000
Ar -1.417552e+00 0.000000e+00 0.000000e+00
1
Step 279000
Ar -1.416558e+00 0.000000e+00 0.000000e+00
1
Step 280000
Ar -1.424407e+00 0.000000e+00 0.000000e+00
1
Step 281000
Ar -1.469267e+00 0.000000e+00 0.000000e+00
1
Step 282000
Ar -1.440642e+00 0.000000e+00 0.000000e+00
1
Step 283000
Ar -1.456886e+00 0.000000e+00 0.000000e+00
1
Step 284000
Ar -1.438675e+00 0.000000e+00 0.000000e+00
1
Step 285000
Ar -1.467202e+00 0.000000e+00 0.000000e+00
1
Step 286000
Ar -1.518598e+00 0.000000e+00 0.000000e+00
1
Step 287000
Ar -1.502903e+00 0.000000e+00 0.000000e+00
1
Step 288000
Ar -1.503387e+00 0.000000e+00 0.000000e+00
1
Step 289000
Ar -1.497149e+00 0.000000e+00 0.000000e+00
1
Step 290000
Ar -1.512400e+00 0.000000e+00 0.000000e+00
1
Step 291000
Ar -9.119057e-01 0.000000e+00 0.000000e+00
1
Step 292000
Ar -9.185425e-01 0.000000e+00 0.000000e+00
1
Step 293000
Ar -9.047851e-01 0.000000e+00 0.000000e+00
1
Step 294000
Ar -9.136644e-01 0.000000e+00 0.000000e+00
1
Step 295000
Ar -9.029648e-01 0.000000e+00 0.000000e+00
1
Step 296000
Ar -9.196009e-01 0.000000e+00 0.000000e+00
1
Step 297000
Ar -9.162244e-01 0.000000e+00 0.000000e+00
1
Step 298000
Ar -9.161967e-01 0.000000e+00 0.000000e+00
1
Step 299000
Ar -9.154393e-01 0.000000e+00 0.000000e+00
1
Step 300000
Ar -9.183704e-01 0.000000e+00 0.000000e+00
1
Step 301000
Ar -1.138954e+00 0.000000e+00 0.000000e+00
1
Step 302000
Ar -1.116546e+00 0.000000e+00 0.000000e+00
1
Step 303000
Ar -1.114969e+00 0.000000e+00 0.000000e+00
1
Step 304000
Ar -1.129132e+00 0.000000e+00 0.000000e+00
1
Step 305000
Ar -1.139642e+00 0.000000e+00 0.000000e+00
1
Step 306000
Ar -1.116053e+00 0.000000e+00 0.000000e+00
1
Step 307000
Ar -1.119056e+00 0.000000e+00 0.000000e+00
1
Step 308000
Ar -1.118966e+00 0.000000e+00 0.000000e+00
1
Step 309000
Ar -1.114994e+00 0.000000e+00 0.000000e+00
1
Step 310000
Ar -1.118654e+00 0.000000e+00 0.000000e+00
1
Step 311000
Ar -1.130456e+00 0.000000e+00 0.000000e+00
1
Step 312000
Ar -1.127311e+00 0.000000e+00 0.000000e+00
1
Step 313000
Ar -1.131626e+00 0.000000e+00 0.000000e+00
1
Step 314000
Ar -1.298441e+00 0.000000e+00 0.000000e+00
1
Step 315000
Ar -1.306717e+00 0.000000e+00 0.000000e+00
1
Step 316000
Ar -1.343011e+00 0.000000e+00 0.000000e+00
1
Step 317000
Ar -1.323227e+00 0.000000e+00 0.000000e+00
1
Step 318000
Ar -1.322826e+00 0.000000e+00 0.000000e+00
1
Step 319000
Ar -1.362157e+00 0.000000e+00 0.000000e+00
1
Step 320000
Ar -1.336129e+00 0.000000e+00 0.000000e+00
1
Step 321000
Ar -9.625289e-01 0.000000e+00 0.000000e+00
1
Step 322000
Ar -9.634871e-01 0.000000e+00 0.000000e+00
1
Step 323000
Ar -9.659915e-01 0.000000e+00 0.000000e+00
1
Step 324000
Ar -9.626334e-01 0.000000e+00 0.000000e+00
1
Step 325000
Ar -9.633877e-01 0.000000e+00 0.000000e+00
1
Step 326000
Ar -9.432024e-01 0.000000e+00 0.000000e+00
1
Step 327000
Ar -9.417654e-01 0.000000e+00 0.000000e+00
1
Step 328000
Ar -9.409492e-01 0.000000e+00 0.000000e+00
1
Step 329000
Ar -9.391802e-01 0.000000e+00 0.000000e+00
1
Step 330000
Ar -9.351646e-01 0.000000e+00 0.000000e+00
1
Step 331000
Ar -1.199396e+00 0.000000e+00 0.000000e+00
1
Step 332000
Ar -1.230303e+00 0.000000e+00 0.000000e+00
1
Step 333000
Ar -1.235989e+00 0.000000e+00 0.000000e+00
1
Step 334000
Ar -1.223862e+00 0.000000e+00 0.000000e+00
1
Step 335000
Ar -1.206830e+00 0.000000e+00 0.000000e+00
1
Step 336000
Ar -1.445743e+00 0.000000e+00 0.000000e+00
1
Step 337000
Ar -1.454616e+00 0.000000e+00 0.000000e+00
1
Step 338000
Ar -1.447093e+00 0.000000e+00 0.000000e+00
1
Step 339000
Ar -1.448800e+00 0.000000e+00 0.000000e+00
1
Step 340000
Ar -1.444638e+00 0.000000e+00 0.000000e+00
1
Step 341000
Ar -1.489132e+00 0.000000e+00 0.000000e+00
1
Step 342000
Ar -1.493751e+00 0.000000e+00 0.000000e+00
1
Step 343000
Ar -1.492191e+00 0.000000e+00 0.000000e+00
1
Step 344000
Ar -1.480634e+00 0.000000e+00 0.000000e+00
1
Step 345000
Ar -1.480212e+00 0.000000e+00 0.000000e+00
1
Step 346000
Ar 6.073177e-01 0.000000e+00 0.000000e+00
1
Step 347000
Ar 6.378164e-01 0.000000e+00 0.000000e+00
1
Step 348000
Ar 6.053871e-01 0.000000e+00 0.000000e+00
1
Step 349000
Ar 6.298338e-01 0.000000e+00 0.000000e+00
1
Step 350000
Ar 6.029180e-01 0.000000e+00 0.000000e+00
1
Step 351000
Ar 6.242211e-01 0.000000e+00 0.000000e+00
1
Step 352000
Ar 6.307342e-01 0.000000e+00 0.000000e+00
1
Step 353000
Ar 6.315636e-01 0.000000e+00 0.000000e+00
1
Step 354000
Ar 6.243229e-01 0.000000e+00 0.000000e+00
1
Step 355000
Ar 6.331252e-01 0.000000e+00 0.000000e+00
1
Step 356000
Ar 5.224784e-01 0.000000e+00 0.000000e+00
1
Step 357000
Ar 5.269632e-01 0.000000e+00 0.000000e+00
1
Step 358000
Ar 5.390534e-01 0.000000e+00 0.000000e+00
1
Step 359000
Ar 5.663460e-01 0.000000e+00 0.000000e+00
1
Step 360000
Ar 5.761827e-01 0.000000e+00 0.000000e+00
1
Step 361000
Ar 5.422327e-01 0.000000e+00 0.000000e+00
1
Step 362000
Ar 5.177183e-01 0.000000e+00 0.000000e+00
1
Step 363000
Ar 5.301546e-01 0.000000e+00 0.000000e+00
1
Step 364000
Ar 3.913507e-01 0.000000e+00 0.000000e+00
1
Step 365000
Ar -1.350564e-01 0.000000e+00 0.000000e+00
1
Step 366000
Ar -6.584835e-01 0.000000e+00 0.000000e+00
1
Step 367000
Ar -8.065351e-01 0.000000e+00 0.000000e+00
1
Step 368000
Ar -7.179642e-01 0.000000e+00 0.000000e+00
1
Step 369000
Ar -7.326191e-01 0.000000e+00 0.000000e+00
1
Step 370000
Ar -7.400386e-01 0.000000e+00 0.000000e+00
1
Step 371000
Ar -6.545319e-01 0.000000e+00 0.000000e+00
1
Step 372000
Ar -6.757616e-01 0.000000e+00 0.000000e+00
1
Step 373000
Ar -7.281153e-01 0.000000e+00 0.000000e+00
1
Step 374000
Ar -7.121300e-01 0.000000e+00 0.000000e+00
1
Step 375000
Ar -6.555326e-01 0.000000e+00 0.000000e+00
1
Step 376000
Ar -7.927891e-01 0.000000e+00 0.000000e+00
1
Step 377000
Ar -7.982247e-01 0.000000e+00 0.000000e+00
1
Step 378000
Ar -7.613543e-01 0.000000e+00 0.000000e+00
1
Step 379000
Ar -7.809378e-01 0.000000e+00 0.000000e+00
1
Step 380000
Ar -7.612055e-01 0.000000e+00 0.000000e+00
1
Step 381000
Ar -7.906358e-01 0.000000e+00 0.000000e+00
1
Step 382000
Ar -7.842124e-01 0.000000e+00 0.000000e+00
1
Step 383000
Ar -7.734674e-01 0.000000e+00 0.000000e+00
1
Step 384000
Ar -7.973701e-01 0.000000e+00 0.000000e+00
1
Step 385000
Ar -8.007554e-01 0.000000e+00 0.000000e+00
1
Step 386000
Ar -7.519365e-01 0.000000e+00 0.000000e+00
1
Step 387000
Ar -7.493765e-01 0.000000e+00 0.000000e+00
1
Step 388000
Ar -1.053346e+00 0.000000e+00 0.000000e+00
1
Step 389000
Ar -1.055510e+00 0.000000e+00 0.000000e+00
1
Step 390000
Ar -1.059751e+00 0.000000e+00 0.000000e+00
1
Step 391000
Ar -5.357654e-01 0.000000e+00 0.000000e+00
1
Step 392000
Ar -6.302973e-01 0.000000e+00 0.000000e+00
1
Step 393000
Ar -5.783722e-01 0.000000e+00 0.000000e+00
1
Step 394000
Ar -6.063942e-01 0.000000e+00 0.000000e+00
1
Step 395000
Ar -5.462777e-01 0.000000e+00 0.000000e+00
1
Step 396000
Ar -5.088847e-01 0.000000e+00 0.000000e+00
1
Step 397000
Ar -4.347683e-01 0.000000e+00 0.000000e+00
1
Step 398000
Ar -5.332620e-01 0.000000e+00 0.000000e+00
1
Step 399000
Ar -2.816282e-01 0.000000e+00 0.000000e+00
1
Step 400000
Ar -5.198827e-01 0.000000e+00 0.000000e+00
1
Step 401000
Ar -4.873451e-01 0.000000e+00 0.000000e+00
1
Step 402000
Ar -4.799528e-01 0.000000e+00 0.000000e+00
1
Step 403000
Ar -4.388865e-01 0.000000e+00 0.000000e+00
1
Step 404000
Ar -4.948629e-01 0.000000e+00 0.000000e+00
1
Step 405000
Ar -3.176477e-01 0.000000e+00 0.000000e+00
1
Step 406000
Ar -4.271185e-01 0.000000e+00 0.000000e+00
1
Step 407000
Ar -4.886965e-01 0.000000e+00 0.000000e+00
1
Step 408000
Ar -5.024425e-01 0.000000e+00 0.000000e+00
1
Step 409000
Ar -4.770086e-01 0.000000e+00 0.000000e+00
1
Step 410000
Ar -4.208413e-01 0.000000e+00 0.000000e+00
1
Step 411000
Ar -4.562976e-01 0.000000e+00 0.000000e+00
1
Step 412000
Ar -4.659436e-01 0.000000e+00 0.000000e+00
1
Step 413000
Ar -4.902283e-01 0.000000e+00 0.000000e+00
1
Step 414000
Ar -4.709576e-01 0.000000e+00 0.000000e+00
1
Step 415000
Ar -4.788881e-01 0.000000e+00 0.000000e+00
1
Step 416000
Ar -4.927900e-01 0.000000e+00 0.000000e+00
1
Step 417000
Ar -5.002495e-01 0.000000e+00 0.000000e+00
1
Step 418000
Ar -5.019409e-01 0.000000e+00 0.000000e+00
1
Step 419000
Ar -5.023434e-01 0.000000e+00 0.000000e+00
1
Step 420000
Ar -5.066224e-01 0.000000e+00 0.000000e+00
1
Step 421000
Ar -4.911602e-01 0.000000e+00 0.000000e+00
1
Step 422000
Ar -4.914392e-01 0.000000e+00 0.000000e+00
1
Step 423000
Ar -4.936064e-01 0.000000e+00 0.000000e+00
1
Step 424000
Ar -4.948515e-01 0.000000e+00 0.000000e+00
1
Step 425000
Ar -4.943506e-01 0.000000e+00 0.000000e+00
1
Step 426000
Ar -4.491037e-01 0.000000e+00 0.000000e+00
1
Step 427000
Ar -4.678697e-01 0.000000e+00 0.000000e+00
1
Step 428000
Ar -4.415838e-01 0.000000e+00 0.000000e+00
1
Step 429000
Ar -4.452052e-01 0.000000e+00 0.000000e+00
1
Step 430000
Ar -4.491594e-01 0.000000e+00 0.000000e+00
1
Step 431000
Ar -3.329851e-01 0.000000e+00 0.000000e+00
1
Step 432000
Ar -4.009189e-01 0.000000e+00 0.000000e+00
1
Step 433000
Ar -3.816293e-01 0.000000e+00 0.000000e+00
1
Step 434000
Ar -3.681371e-01 0.000000e+00 0.000000e+00
1
Step 435000
Ar -3.582127e-01 0.000000e+00 0.000000e+00
1
Step 436000
Ar -3.357002e-01 0.000000e+00 0.000000e+00
1
Step 437000
Ar -3.338568e-01 0.000000e+00 0.000000e+00
1
Step 438000
Ar -3.346236e-01 0.000000e+00 0.000000e+00
1
Step 439000
Ar -3.388636e-01 0.000000e+00 0.000000e+00
1
Step 440000
Ar -3.361857e-01 0.000000e+00 0.000000e+00
1
Step 441000
Ar -3.471655e-01 0.000000e+00 0.000000e+00
1
Step 442000
Ar -3.514965e-01 0.000000e+00 0.000000e+00
1
Step 443000
Ar -3.478090e-01 0.000000e+00 0.000000e+00
1
Step 444000
Ar -3.521341e-01 0.000000e+00 0.000000e+00
1
Step 445000
Ar -3.460322e-01 0.000000e+00 0.000000e+00
1
Step 446000
Ar -5.323485e-01 0.000000e+00 0.000000e+00
1
Step 447000
Ar -5.331993e-01 0.000000e+00 0.000000e+00
1
Step 448000
Ar -5.355873e-01 0.000000e+00 0.000000e+00
1
Step 449000
Ar -5.357856e-01 0.000000e+00 0.000000e+00
1
Step 450000
Ar -5.306768e-01 0.000000e+00 0.000000e+00
1
Step 451000
Ar -5.913486e-01 0.000000e+00 0.000000e+00
1
Step 452000
Ar -6.236645e-01 0.000000e+00 0.000000e+00
1
Step 453000
Ar -6.282233e-01 0.000000e+00 0.000000e+00
1
Step 454000
Ar -6.162307e-01 0.000000e+00 0.000000e+00
1
Step 455000
Ar -5.843330e-01 0.000000e+00 0.000000e+00
1
Step 456000
Ar -5.615347e-01 0.000000e+00 0.000000e+00
1
Step 457000
Ar -5.646348e-01 0.000000e+00 0.000000e+00
1
Step 458000
Ar -5.626651e-01 0.000000e+00 0.000000e+00
1
Step 459000
Ar -5.715227e-01 0.000000e+00 0.000000e+00
1
Step 460000
Ar -5.594568e-01 0.000000e+00 0.000000e+00
1
Step 461000
Ar -5.737498e-01 0.000000e+00 0.000000e+00
1
Step 462000
Ar -5.736200e-01 0.000000e+00 0.000000e+00
1
Step 463000
Ar -5.701127e-01 0.000000e+00 0.000000e+00
1
Step 464000
Ar -5.693283e-01 0.000000e+00 0.000000e+00
1
Step 465000
Ar -5.743661e-01 0.000000e+00 0.000000e+00
1
Step 466000
Ar -3.744004e-01 0.000000e+00 0.000000e+00
1
Step 467000
Ar -3.862590e-01 0.000000e+00 0.000000e+00
1
Step 468000
Ar -3.983962e-01 0.000000e+00 0.000000e+00
1
Step 469000
Ar -3.970163e-01 0.000000e+00 0.000000e+00
1
Step 470000
Ar -3.969404e-01 0.000000e+00 0.000000e+00
1
Step 471000
Ar -4.086399e-01 0.000000e+00 0.000000e+00
1
Step 472000
Ar -4.095169e-01 0.000000e+00 0.000000e+00
1
Step 473000
Ar -4.080888e-01 0.000000e+00 0.000000e+00
1
Step 474000
Ar -4.090879e-01 0.000000e+00 0.000000e+00
1
Step 475000
Ar -4.079172e-01 0.000000e+00 0.000000e+00
1
Step 476000
Ar -7.819924e-01 0.000000e+00 0.000000e+00
1
Step 477000
Ar -7.745496e-01 0.000000e+00 0.000000e+00
1
Step 478000
Ar -7.823754e-01 0.000000e+00 0.000000e+00
1
Step 479000
Ar -7.739507e-01 0.000000e+00 0.000000e+00
1
Step 480000
Ar -7.768331e-01 0.000000e+00 0.000000e+00
1
Step 481000
Ar -7.081211e-01 0.000000e+00 0.000000e+00
1
Step 482000
Ar -6.866862e-01 0.000000e+00 0.000000e+00
1
Step 483000
Ar -7.220346e-01 0.000000e+00 0.000000e+00
1
Step 484000
Ar -7.126518e-01 0.000000e+00 0.000000e+00
1
Step 485000
Ar -6.891495e-01 0.000000e+00 0.000000e+00
1
Step 486000
Ar -6.767428e-01 0.000000e+00 0.000000e+00
1
Step 487000
Ar -6.656187e-01 0.000000e+00 0.000000e+00
1
Step 488000
Ar -6.821240e-01 0.000000e+00 0.000000e+00
1
Step 489000
Ar -6.742151e-01 0.000000e+00 0.000000e+00
1
Step 490000
Ar -6.754839e-01 0.000000e+00 0.000000e+00
1
Step 491000
Ar -7.886959e-01 0.000000e+00 0.000000e+00
1
Step 492000
Ar -7.887981e-01 0.000000e+00 0.000000e+00
1
Step 493000
Ar -7.913010e-01 0.000000e+00 0.000000e+00
1
Step 494000
Ar -7.848996e-01 0.000000e+00 0.000000e+00
1
Step 495000
Ar -7.875864e-01 0.000000e+00 0.000000e+00
1
Step 496000
Ar -7.056128e-01 0.000000e+00 0.000000e+00
1
Step 497000
Ar -7.207310e-01 0.000000e+00 0.000000e+00
1
Step 498000
Ar -7.240544e-01 0.000000e+00 0.000000e+00
1
Step 499000
Ar -7.262392e-01 0.000000e+00 0.000000e+00
1
Step 500000
Ar -7.189499e-01 0.000000e+00 0.000000e+00
1
Step 501000
Ar -6.187081e-01 0.000000e+00 0.000000e+00
1
Step 502000
Ar -6.138035e-01 0.000000e+00 0.000000e+00
1
Step 503000
Ar -6.180342e-01 0.000000e+00 0.000000e+00
1
Step 504000
Ar -6.344433e-01 0.000000e+00 0.000000e+00
1
Step 505000
Ar -6.429224e-01 0.000000e+00 0.000000e+00
1
Step 506000
Ar -4.369119e-01 0.000000e+00 0.000000e+00
1
Step 507000
Ar -4.385059e-01 0.000000e+00 0.000000e+00
1
Step 508000
Ar -4.368363e-01 0.000000e+00 0.000000e+00
1
Step 509000
Ar -3.533662e-01 0.000000e+00 0.000000e+00
1
Step 510000
Ar -3.872541e-01 0.000000e+00 0.000000e+00
1
Step 511000
Ar -8.774667e-01 0.000000e+00 0.000000e+00
1
Step 512000
Ar -8.754730e-01 0.000000e+00 0.000000e+00
1
Step 513000
Ar -8.760595e-01 0.000000e+00 0.000000e+00
1
Step 514000
Ar -8.775073e-01 0.000000e+00 0.000000e+00
1
Step 515000
Ar -8.770029e-01 0.000000e+00 0.000000e+00
1
Step 516000
Ar -9.085504e-01 0.000000e+00 0.000000e+00
1
Step 517000
Ar 5.302865e-01 0.000000e+00 0.000000e+00
1
Step 518000
Ar 5.588274e-01 0.000000e+00 0.000000e+00
1
Step 519000
Ar 5.554781e-01 0.000000e+00 0.000000e+00
1
Step 520000
Ar 3.644854e-01 0.000000e+00 0.000000e+00
1
Step 521000
Ar 2.076068e-01 0.000000e+00 0.000000e+00
1
Step 522000
Ar -5.815963e-02 0.000000e+00 0.000000e+00
1
Step 523000
Ar 3.366369e-01 0.000000e+00 0.000000e+00
1
Step 524000
Ar 2.066795e-01 0.000000e+00 0.000000e+00
1
Step 525000
Ar -6.078446e-02 0.000000e+00 0.000000e+00
1
Step 526000
Ar 2.124536e-01 0.000000e+00 0.000000e+00
1
Step 527000
Ar 1.056188e-01 0.000000e+00 0.000000e+00
1
Step 528000
Ar 3.368122e-01 0.000000e+00 0.000000e+00
1
Step 529000
Ar 3.272247e-01 0.000000e+00 0.000000e+00
1
Step 530000
Ar 2.873782e-01 0.000000e+00 0.000000e+00
1
Step 531000
Ar 1.277241e-01 0.000000e+00 0.000000e+00
1
Step 532000
Ar 2.195133e-01 0.000000e+00 0.000000e+00
1
Step 533000
Ar 1.090044e-01 0.000000e+00 0.000000e+00
1
Step 534000
Ar 2.032350e-01 0.000000e+00 0.000000e+00
1
Step 535000
Ar 2.330969e-01 0.000000e+00 0.000000e+00
1
Step 536000
Ar 2.569583e-01 0.000000e+00 0.000000e+00
1
Step 537000
Ar 2.532155e-01 0.000000e+00 0.000000e+00
1
Step 538000
Ar 2.429943e-01 0.000000e+00 0.000000e+00
1
Step 539000
Ar 2.474871e-01 0.000000e+00 0.000000e+00
1
Step 540000
Ar 2.629602e-01 0.000000e+00 0.000000e+00
1
Step 541000
Ar 3.520267e-01 0.000000e+00 0.000000e+00
1
Step 542000
Ar 3.056803e-01 0.000000e+00 0.000000e+00
1
Step 543000
Ar 3.376189e-01 0.000000e+00 0.000000e+00
1
Step 544000
Ar 3.309106e-01 0.000000e+00 0.000000e+00
1
Step 545000
Ar 3.362868e-01 0.000000e+00 0.000000e+00
1
Step 546000
Ar 5.624035e-01 0.000000e+00 0.000000e+00
1
Step 547000
Ar 5.555603e-01 0.000000e+00 0.000000e+00
1
Step 548000
Ar 5.126195e-01 0.000000e+00 0.000000e+00
1
Step 549000
Ar 4.633706e-01 0.000000e+00 0.000000e+00
1
Step 550000
Ar 5.308137e-01 0.000000e+00 0.000000e+00
1
Step 551000
Ar 3.984976e-01 0.000000e+00 0.000000e+00
1
Step 552000
Ar 3.895140e-01 0.000000e+00 0.000000e+00
1
Step 553000
Ar 4.686243e-01 0.000000e+00 0.000000e+00
1
Step 554000
Ar 4.024847e-01 0.000000e+00 0.000000e+00
1
Step 555000
Ar 4.352825e-01 0.000000e+00 0.000000e+00
1
Step 556000
Ar 4.695133e-01 0.000000e+00 0.000000e+00
1
Step 557000
Ar 5.137005e-01 0.000000e+00 0.000000e+00
1
Step 558000
Ar 5.108411e-01 0.000000e+00 0.000000e+00
1
Step 559000
Ar 4.733921e-01 0.000000e+00 0.000000e+00
1
Step 560000
Ar 5.050619e-01 0.000000e+00 0.000000e+00
1
Step 561000
Ar 4.927358e-01 0.000000e+00 0.000000e+00
1
Step 562000
Ar 4.910012e-01 0.000000e+00 0.000000e+00
1
Step 563000
Ar 4.770848e-01 0.000000e+00 0.000000e+00
1
Step 564000
Ar 4.868676e-01 0.000000e+00 0.000000e+00
1
Step 565000
Ar 4.841729e-01 0.000000e+00 0.000000e+00
1
Step 566000
Ar 8.877717e-01 0.000000e+00 0.000000e+00
1
Step 567000
Ar 9.047157e-01 0.000000e+00 0.000000e+00
1
Step 568000
Ar 8.973409e-01 0.000000e+00 0.000000e+00
1
Step 569000
Ar 8.922212e-01 0.000000e+00 0.000000e+00
1
Step 570000
Ar 8.951891e-01 0.000000e+00 0.000000e+00
1
Step 571000
Ar 9.768800e-01 0.000000e+00 0.000000e+00
1
Step 572000
Ar 9.582374e-01 0.000000e+00 0.000000e+00
1
Step 573000
Ar 9.558525e-01 0.000000e+00 0.000000e+00
1
Step 574000
Ar 9.486033e-01 0.000000e+00 0.000000e+00
1
Step 575000
Ar 9.417744e-01 0.000000e+00 0.000000e+00
1
Step 576000
Ar 9.282242e-01 0.000000e+00 0.000000e+00
1
Step 577000
Ar 9.310029e-01 0.000000e+00 0.000000e+00
1
Step 578000
Ar 9.267278e-01 0.000000e+00 0.000000e+00
1
Step 579000
Ar 9.282848e-01 0.000000e+00 0.000000e+00
1
Step 580000
Ar 9.326671e-01 0.000000e+00 0.000000e+00
1
Step 581000
Ar 7.693702e-01 0.000000e+00 0.000000e+00
1
Step 582000
Ar 8.110819e-01 0.000000e+00 0.000000e+00
1
Step 583000
Ar 7.766815e-01 0.000000e+00 0.000000e+00
1
Step 584000
Ar 8.098998e-01 0.000000e+00 0.000000e+00
1
Step 585000
Ar 8.155415e-01 0.000000e+00 0.000000e+00
1
Step 586000
Ar 6.944338e-01 0.000000e+00 0.000000e+00
1
Step 587000
Ar 6.960200e-01 0.000000e+00 0.000000e+00
1
Step 588000
Ar 7.203422e-01 0.000000e+00 0.000000e+00
1
Step 589000
Ar 7.067913e-01 0.000000e+00 0.000000e+00
1
Step 590000
Ar 7.362908e-01 0.000000e+00 0.000000e+00
1
Step 591000
Ar 6.171018e-01 0.000000e+00 0.000000e+00
1
Step 592000
Ar 6.176403e-01 0.000000e+00 0.000000e+00
1
Step 593000
Ar 6.200020e-01 0.000000e+00 0.000000e+00
1
Step 594000
Ar 6.175330e-01 0.000000e+00 0.000000e+00
1
Step 595000
Ar 6.190328e-01 0.000000e+00 0.000000e+00
1
Step 596000
Ar 6.417581e-01 0.000000e+00 0.000000e+00
1
Step 597000
Ar 6.288901e-01 0.000000e+00 0.000000e+00
1
Step 598000
Ar 1.033682e+00 0.000000e+00 0.000000e+00
1
Step 599000
Ar 1.034634e+00 0.000000e+00 0.000000e+00
1
Step 600000
Ar 1.016033e+00 0.000000e+00 0.000000e+00
1
Step 601000
Ar 1.114180e+00 0.000000e+00 0.000000e+00
1
Step 602000
Ar 1.133477e+00 0.000000e+00 0.000000e+00
1
Step 603000
Ar 1.088627e+00 0.000000e+00 0.000000e+00
1
Step 604000
Ar 1.103699e+00 0.000000e+00 0.000000e+00
1
Step 605000
Ar 1.105381e+00 0.000000e+00 0.000000e+00
1
Step 606000
Ar 1.067099e+00 0.000000e+00 0.000000e+00
1
Step 607000
Ar 1.065064e+00 0.000000e+00 0.000000e+00
1
Step 608000
Ar 1.066316e+00 0.000000e+00 0.000000e+00
1
Step 609000
Ar 1.066476e+00 0.000000e+00 0.000000e+00
1
Step 610000
Ar 1.064370e+00 0.000000e+00 0.000000e+00
1
Step 611000
Ar 1.119172e+00 0.000000e+00 0.000000e+00
1
Step 612000
Ar 1.122659e+00 0.000000e+00 0.000000e+00
1
Step 613000
Ar 1.129940e+00 0.000000e+00 0.000000e+00
1
Step 614000
Ar 1.132544e+00 0.000000e+00 0.000000e+00
1
Step 615000
Ar 1.141261e+00 0.000000e+00 0.000000e+00
1
Step 616000
Ar 1.166448e+00 0.000000e+00 0.000000e+00
1
Step 617000
Ar 1.169752e+00 0.000000e+00 0.000000e+00
1
Step 618000
Ar 1.165488e+00 0.000000e+00 0.000000e+00
1
Step 619000
Ar 1.180213e+00 0.000000e+00 0.000000e+00
1
Step 620000
Ar 1.215226e+00 0.000000e+00 0.000000e+00
1
Step 621000
Ar 1.168814e+00 0.000000e+00 0.000000e+00
1
Step 622000
Ar 7.907960e-01 0.000000e+00 0.000000e+00
1
Step 623000
Ar 8.040766e-01 0.000000e+00 0.000000e+00
1
Step 624000
Ar 7.814535e-01 0.000000e+00 0.000000e+00
1
Step 625000
Ar 8.001929e-01 0.000000e+00 0.000000e+00
1
Step 626000
Ar 7.631000e-01 0.000000e+00 0.000000e+00
1
Step 627000
Ar 7.751626e-01 0.000000e+00 0.000000e+00
1
Step 628000
Ar 7.631135e-01 0.000000e+00 0.000000e+00
1
Step 629000
Ar 7.702700e-01 0.000000e+00 0.000000e+00
1
Step 630000
Ar 7.757625e-01 0.000000e+00 0.000000e+00
1
Step 631000
Ar 7.888824e-01 0.000000e+00 0.000000e+00
1
Step 632000
Ar 7.925988e-01 0.000000e+00 0.000000e+00
1
Step 633000
Ar 7.893333e-01 0.000000e+00 0.000000e+00
1
Step 634000
Ar 7.888656e-01 0.000000e+00 0.000000e+00
1
Step 635000
Ar 7.913776e-01 0.000000e+00 0.000000e+00
1
Step 636000
Ar 6.663761e-01 0.000000e+00 0.000000e+00
1
Step 637000
Ar 6.627066e-01 0.000000e+00 0.000000e+00
1
Step 638000
Ar 6.622547e-01 0.000000e+00 0.000000e+00
1
Step 639000
Ar 6.634932e-01 0.000000e+00 0.000000e+00
1
Step 640000
Ar 6.610359e-01 0.000000e+00 0.000000e+00
1
Step 641000
Ar 7.152889e-01 0.000000e+00 0.000000e+00
1
Step 642000
Ar 7.189753e-01 0.000000e+00 0.000000e+00
1
Step 643000
Ar 7.030792e-01 0.000000e+00 0.000000e+00
1
Step 644000
Ar 7.093096e-01 0.000000e+00 0.000000e+00
1
Step 645000
Ar 7.066892e-01 0.000000e+00 0.000000e+00
1
Step 646000
Ar 6.952780e-01 0.000000e+00 0.000000e+00
1
Step 647000
Ar 6.922333e-01 0.000000e+00 0.000000e+00
1
Step 648000
Ar 6.925693e-01 0.000000e+00 0.000000e+00
1
Step 649000
Ar 6.884184e-01 0.000000e+00 0.000000e+00