1
Step 120000
Ar 1.006948e+00 0.000000e+00 0.000000e+00
1
Step 121000
Ar 9.851842e-01 0.000000e+00 0.000000e+00
1
Step 122000
Ar 9.259088e-01 0.000000e+00 0.000000e+00
1
Step 123000
Ar 9.475593e-01 0.000000e+00 0.000000e+00
1
Step 124000
Ar 7.969936e-01 0.000000e+00 0.000000e+00
1
Step 125000
Ar 8.111447e-01 0.000000e+00 0.000000e+00
1
Step 126000
Ar 7.725124e-01 0.000000e+00 0.000000e+00
1
Step 127000
Ar 7.973281e-01 0.000000e+00 0.000000e+00
1
Step 128000
Ar 9.529138e-01 0.000000e+00 0.000000e+00
1
Step 129000
Ar 8.738590e-01 0.000000e+00 0.000000e+00
1
Step 130000
Ar 8.614287e-01 0.000000e+00 0.000000e+00
1
Step 131000
Ar 8.384621e-01 0.000000e+00 0.000000e+00
1
Step 132000
Ar 8.400246e-01 0.000000e+00 0.000000e+00
1
Step 133000
Ar 9.718297e-01 0.000000e+00 0.000000e+00
1
Step 134000
Ar 1.016531e+00 0.000000e+00 0.000000e+00
1
Step 135000
Ar 1.021312e+00 0.000000e+00 0.000000e+00
1
Step 136000
Ar 1.190628e+00 0.000000e+00 0.000000e+00
1
Step 137000
Ar 1.054927e+00 0.000000e+00 0.000000e+00
1
Step 138000
Ar 1.157809e+00 0.000000e+00 0.000000e+00
1
Step 139000
Ar 1.051953e+00 0.000000e+00 0.000000e+00
1
Step 140000
Ar 1.106270e+00 0.000000e+00 0.000000e+00
1
Step 141000
Ar 8.857562e-01 0.000000e+00 0.000000e+00
1
Step 142000
Ar 9.987583e-01 0.000000e+00 0.000000e+00
1
Step 143000
Ar 9.493852e-01 0.000000e+00 0.000000e+00
1
Step 144000
Ar 9.527748e-01 0.000000e+00 0.000000e+00
1
Step 145000
Ar 1.243798e+00 0.000000e+00 0.000000e+00
1
Step 146000
Ar 1.047231e+00 0.000000e+00 0.000000e+00
1
Step 147000
Ar 8.862492e-01 0.000000e+00 0.000000e+00
1
Step 148000
Ar 9.022304e-01 0.000000e+00 0.000000e+00
1
Step 149000
Ar 1.005799e+00 0.000000e+00 0.000000e+00
1
Step 150000
Ar 1.034835e+00 0.000000e+00 0.000000e+00
1
Step 151000
Ar 1.128819e+00 0.000000e+00 0.000000e+00
1
Step 152000
Ar 1.128139e+00 0.000000e+00 0.000000e+00
1
Step 153000
Ar 1.130319e+00 0.000000e+00 0.000000e+00
1
Step 154000
Ar 1.189753e+00 0.000000e+00 0.000000e+00
1
Step 155000
Ar 1.202241e+00 0.000000e+00 0.000000e+00
1
Step 156000
Ar 1.074690e+00 0.000000e+00 0.000000e+00
1
Step 157000
Ar 1.043936e+00 0.000000e+00 0.000000e+00
1
Step 158000
Ar 9.015111e-01 0.000000e+00 0.000000e+00
1
Step 159000
Ar 9.912455e-01 0.000000e+00 0.000000e+00
1
Step 160000
Ar 9.469512e-01 0.000000e+00 0.000000e+00
1
Step 161000
Ar 9.595883e-01 0.000000e+00 0.000000e+00
1
Step 162000
Ar 1.170000e+00 0.000000e+00 0.000000e+00
1
Step 163000
Ar 1.184853e+00 0.000000e+00 0.000000e+00
1
Step 164000
Ar 1.133848e+00 0.000000e+00 0.000000e+00
1
Step 165000
Ar 1.143328e+00 0.000000e+00 0.000000e+00
1
Step 166000
Ar 1.084750e+00 0.000000e+00 0.000000e+00
1
Step 167000
Ar 1.084558e+00 0.000000e+00 0.000000e+00
1
Step 168000
Ar 1.213958e+00 0.000000e+00 0.000000e+00
1
Step 169000
Ar 1.226627e+00 0.000000e+00 0.000000e+00
1
Step 170000
Ar 1.215596e+00 0.000000e+00 0.000000e+00
1
Step 171000
Ar 1.002011e+00 0.000000e+00 0.000000e+00
1
Step 172000
Ar 9.697096e-01 0.000000e+00 0.000000e+00
1
Step 173000
Ar 9.945541e-01 0.000000e+00 0.000000e+00
1
Step 174000
Ar 9.930085e-01 0.000000e+00 0.000000e+00
1
Step 175000
Ar 9.794037e-01 0.000000e+00 0.000000e+00
1
Step 176000
Ar 9.064479e-01 0.000000e+00 0.000000e+00
1
Step 177000
Ar 8.752791e-01 0.000000e+00 0.000000e+00
1
Step 178000
Ar 9.093425e-01 0.000000e+00 0.000000e+00
1
Step 179000
Ar 9.221466e-01 0.000000e+00 0.000000e+00
1
Step 180000
Ar 8.967269e-01 0.000000e+00 0.000000e+00
1
Step 181000
Ar 9.193700e-01 0.000000e+00 0.000000e+00
1
Step 182000
Ar 9.311093e-01 0.000000e+00 0.000000e+00
1
Step 183000
Ar 9.247193e-01 0.000000e+00 0.000000e+00
1
Step 184000
Ar 9.278413e-01 0.000000e+00 0.000000e+00
1
Step 185000
Ar 9.271557e-01 0.000000e+00 0.000000e+00
1
Step 186000
Ar 8.822737e-01 0.000000e+00 0.000000e+00
1
Step 187000
Ar 8.806116e-01 0.000000e+00 0.000000e+00
1
Step 188000
Ar 8.735959e-01 0.000000e+00 0.000000e+00
1
Step 189000
Ar 8.911620e-01 0.000000e+00 0.000000e+00
1
Step 190000
Ar 8.409537e-01 0.000000e+00 0.000000e+00
1
Step 191000
Ar 1.187396e+00 0.000000e+00 0.000000e+00
1
Step 192000
Ar 1.161992e+00 0.000000e+00 0.000000e+00
1
Step 193000
Ar 1.159614e+00 0.000000e+00 0.000000e+00
1
Step 194000
Ar 1.171611e+00 0.000000e+00 0.000000e+00
1
Step 195000
Ar 1.175619e+00 0.000000e+00 0.000000e+00
1
Step 196000
Ar 1.092667e+00 0.000000e+00 0.000000e+00
1
Step 197000
Ar 1.087591e+00 0.000000e+00 0.000000e+00
1
Step 198000
Ar 1.057997e+00 0.000000e+00 0.000000e+00
1
Step 199000
Ar 1.061108e+00 0.000000e+00 0.000000e+00
1
Step 200000
Ar 1.051351e+00 0.000000e+00 0.000000e+00
1
Step 201000
Ar 1.062157e+00 0.000000e+00 0.000000e+00
1
Step 202000
Ar 9.635469e-01 0.000000e+00 0.000000e+00
1
Step 203000
Ar 9.578239e-01 0.000000e+00 0.000000e+00
1
Step 204000
Ar 9.581522e-01 0.000000e+00 0.000000e+00
1
Step 205000
Ar 9.688354e-01 0.000000e+00 0.000000e+00
1
Step 206000
Ar 8.835935e-01 0.000000e+00 0.000000e+00
1
Step 207000
Ar 8.780904e-01 0.000000e+00 0.000000e+00
1
Step 208000
Ar 8.746147e-01 0.000000e+00 0.000000e+00
1
Step 209000
Ar 8.844035e-01 0.000000e+00 0.000000e+00
1
Step 210000
Ar 8.793778e-01 0.000000e+00 0.000000e+00
1
Step 211000
Ar 8.275850e-01 0.000000e+00 0.000000e+00
1
Step 212000
Ar 7.341264e-01 0.000000e+00 0.000000e+00
1
Step 213000
Ar 7.937885e-01 0.000000e+00 0.000000e+00
1
Step 214000
Ar 7.541499e-01 0.000000e+00 0.000000e+00
1
Step 215000
Ar 7.086552e-01 0.000000e+00 0.000000e+00
1
Step 216000
Ar 5.624526e-01 0.000000e+00 0.000000e+00
1
Step 217000
Ar 5.464708e-01 0.000000e+00 0.000000e+00
1
Step 218000
Ar 5.747553e-01 0.000000e+00 0.000000e+00
1
Step 219000
Ar 1.074436e+00 0.000000e+00 0.000000e+00
1
Step 220000
Ar 1.066667e+00 0.000000e+00 0.000000e+00
1
Step 221000
Ar 7.772578e-01 0.000000e+00 0.000000e+00
1
Step 222000
Ar 7.737193e-01 0.000000e+00 0.000000e+00
1
Step 223000
Ar 7.870674e-01 0.000000e+00 0.000000e+00
1
Step 224000
Ar 7.895400e-01 0.000000e+00 0.000000e+00
1
Step 225000
Ar 7.480286e-01 0.000000e+00 0.000000e+00
1
Step 226000
Ar 8.294310e-01 0.000000e+00 0.000000e+00
1
Step 227000
Ar 7.734521e-01 0.000000e+00 0.000000e+00
1
Step 228000
Ar 7.906422e-01 0.000000e+00 0.000000e+00
1
Step 229000
Ar 7.947437e-01 0.000000e+00 0.000000e+00
1
Step 230000
Ar 5.449947e-01 0.000000e+00 0.000000e+00
1
Step 231000
Ar 5.014767e-01 0.000000e+00 0.000000e+00
1
Step 232000
Ar 5.769693e-01 0.000000e+00 0.000000e+00
1
Step 233000
Ar 6.144255e-01 0.000000e+00 0.000000e+00
1
Step 234000
Ar 6.509355e-01 0.000000e+00 0.000000e+00
1
Step 235000
Ar 6.248761e-01 0.000000e+00 0.000000e+00
1
Step 236000
Ar 5.862932e-01 0.000000e+00 0.000000e+00
1
Step 237000
Ar 5.883144e-01 0.000000e+00 0.000000e+00
1
Step 238000
Ar 5.895208e-01 0.000000e+00 0.000000e+00
1
Step 239000
Ar 6.451752e-01 0.000000e+00 0.000000e+00
1
Step 240000
Ar 6.765561e-01 0.000000e+00 0.000000e+00
1
Step 241000
Ar 9.039739e-01 0.000000e+00 0.000000e+00
1
Step 242000
Ar 9.143414e-01 0.000000e+00 0.000000e+00
1
Step 243000
Ar 9.119883e-01 0.000000e+00 0.000000e+00
1
Step 244000
Ar 9.150410e-01 0.000000e+00 0.000000e+00
1
Step 245000
Ar 1.005258e+00 0.000000e+00 0.000000e+00
1
Step 246000
Ar 9.375414e-01 0.000000e+00 0.000000e+00
1
Step 247000
Ar 1.045817e+00 0.000000e+00 0.000000e+00
1
Step 248000
Ar 6.826725e-01 0.000000e+00 0.000000e+00
1
Step 249000
Ar 6.926099e-01 0.000000e+00 0.000000e+00
1
Step 250000
Ar 6.949122e-01 0.000000e+00 0.000000e+00
1
Step 251000
Ar 5.649697e-01 0.000000e+00 0.000000e+00
1
Step 252000
Ar 5.918242e-01 0.000000e+00 0.000000e+00
1
Step 253000
Ar 5.772123e-01 0.000000e+00 0.000000e+00
1
Step 254000
Ar 6.005734e-01 0.000000e+00 0.000000e+00
1
Step 255000
Ar 5.998514e-01 0.000000e+00 0.000000e+00
1
Step 256000
Ar 6.131564e-01 0.000000e+00 0.000000e+00
1
Step 257000
Ar 6.150682e-01 0.000000e+00 0.000000e+00
1
Step 258000
Ar 6.125025e-01 0.000000e+00 0.000000e+00
1
Step 259000
Ar 6.510982e-01 0.000000e+00 0.000000e+00
1
Step 260000
Ar 6.526846e-01 0.000000e+00 0.000000e+00
1
Step 261000
Ar 6.412220e-01 0.000000e+00 0.000000e+00
1
Step 262000
Ar 6.385377e-01 0.000000e+00 0.000000e+00
1
Step 263000
Ar 6.649571e-01 0.000000e+00 0.000000e+00
1
Step 264000
Ar 7.304416e-01 0.000000e+00 0.000000e+00
1
Step 265000
Ar 7.106886e-01 0.000000e+00 0.000000e+00
1
Step 266000
Ar 5.107173e-01 0.000000e+00 0.000000e+00
1
Step 267000
Ar 5.072517e-01 0.000000e+00 0.000000e+00
1
Step 268000
Ar 3.290860e-01 0.000000e+00 0.000000e+00
1
Step 269000
Ar 5.047733e-01 0.000000e+00 0.000000e+00
1
Step 270000
Ar 1.931238e-01 0.000000e+00 0.000000e+00
1
Step 271000
Ar 4.823223e-01 0.000000e+00 0.000000e+00
1
Step 272000
Ar 4.511521e-01 0.000000e+00 0.000000e+00
1
Step 273000
Ar 5.648494e-01 0.000000e+00 0.000000e+00
1
Step 274000
Ar 5.652179e-01 0.000000e+00 0.000000e+00
1
Step 275000
Ar 5.644330e-01 0.000000e+00 0.000000e+00
1
Step 276000
Ar 5.816894e-01 0.000000e+00 0.000000e+00
1
Step 277000
Ar 5.834986e-01 0.000000e+00 0.000000e+00
1
Step 278000
Ar 5.878070e-01 0.000000e+00 0.000000e+00
1
Step 279000
Ar 5.870638e-01 0.000000e+00 0.000000e+00
1
Step 280000
Ar 5.761230e-01 0.000000e+00 0.000000e+00
1
Step 281000
Ar 6.330526e-01 0.000000e+00 0.000000e+00
1
Step 282000
Ar 6.397269e-01 0.000000e+00 0.000000e+00
1
Step 283000
Ar 6.342493e-01 0.000000e+00 0.000000e+00
1
Step 284000
Ar 6.318954e-01 0.000000e+00 0.000000e+00
1
Step 285000
Ar 6.442305e-01 0.000000e+00 0.000000e+00
1
Step 286000
Ar 6.124198e-01 0.000000e+00 0.000000e+00
1
Step 287000
Ar 5.918489e-01 0.000000e+00 0.000000e+00
1
Step 288000
Ar 6.118630e-01 0.000000e+00 0.000000e+00
1
Step 289000
Ar 6.103003e-01 0.000000e+00 0.000000e+00
1
Step 290000
Ar 6.080740e-01 0.000000e+00 0.000000e+00
1
Step 291000
Ar 6.317862e-01 0.000000e+00 0.000000e+00
1
Step 292000
Ar 6.608623e-01 0.000000e+00 0.000000e+00
1
Step 293000
Ar 6.642650e-01 0.000000e+00 0.000000e+00
1
Step 294000
Ar 6.691314e-01 0.000000e+00 0.000000e+00
1
Step 295000
Ar 3.795716e-01 0.000000e+00 0.000000e+00
1
Step 296000
Ar 3.135560e-01 0.000000e+00 0.000000e+00
1
Step 297000
Ar -2.540594e-01 0.000000e+00 0.000000e+00
1
Step 298000
Ar -9.385516e-01 0.000000e+00 0.000000e+00
1
Step 299000
Ar -9.940947e-01 0.000000e+00 0.000000e+00
1
Step 300000
Ar -1.056449e+00 0.000000e+00 0.000000e+00
1
Step 301000
Ar -6.163180e-01 0.000000e+00 0.000000e+00
1
Step 302000
Ar -6.446040e-01 0.000000e+00 0.000000e+00
1
Step 303000
Ar -9.199137e-01 0.000000e+00 0.000000e+00
1
Step 304000
Ar -9.579725e-01 0.000000e+00 0.000000e+00
1
Step 305000
Ar -1.086567e+00 0.000000e+00 0.000000e+00
1
Step 306000
Ar -1.102211e+00 0.000000e+00 0.000000e+00
1
Step 307000
Ar -1.238104e+00 0.000000e+00 0.000000e+00
1
Step 308000
Ar -1.108315e+00 0.000000e+00 0.000000e+00
1
Step 309000
Ar -1.138155e+00 0.000000e+00 0.000000e+00
1
Step 310000
Ar -1.189640e+00 0.000000e+00 0.000000e+00
1
Step 311000
Ar -1.215121e+00 0.000000e+00 0.000000e+00
1
Step 312000
Ar -1.294940e+00 0.000000e+00 0.000000e+00
1
Step 313000
Ar -1.268743e+00 0.000000e+00 0.000000e+00
1
Step 314000
Ar -1.321712e+00 0.000000e+00 0.000000e+00
1
Step 315000
Ar -1.263062e+00 0.000000e+00 0.000000e+00
1
Step 316000
Ar -1.305866e+00 0.000000e+00 0.000000e+00
1
Step 317000
Ar -1.282126e+00 0.000000e+00 0.000000e+00
1
Step 318000
Ar -9.547625e-01 0.000000e+00 0.000000e+00
1
Step 319000
Ar -8.777791e-01 0.000000e+00 0.000000e+00
1
Step 320000
Ar -8.374430e-01 0.000000e+00 0.000000e+00
1
Step 321000
Ar -9.404584e-01 0.000000e+00 0.000000e+00
1
Step 322000
Ar -8.282999e-01 0.000000e+00 0.000000e+00
1
Step 323000
Ar -7.829842e-01 0.000000e+00 0.000000e+00
1
Step 324000
Ar -7.686720e-01 0.000000e+00 0.000000e+00
1
Step 325000
Ar -7.402188e-01 0.000000e+00 0.000000e+00
1
Step 326000
Ar -8.108995e-01 0.000000e+00 0.000000e+00
1
Step 327000
Ar -7.681098e-01 0.000000e+00 0.000000e+00
1
Step 328000
Ar -7.890133e-01 0.000000e+00 0.000000e+00
1
Step 329000
Ar -8.076357e-01 0.000000e+00 0.000000e+00
1
Step 330000
Ar -7.570786e-01 0.000000e+00 0.000000e+00
1
Step 331000
Ar -9.670097e-01 0.000000e+00 0.000000e+00
1
Step 332000
Ar -8.521885e-01 0.000000e+00 0.000000e+00
1
Step 333000
Ar -1.023501e+00 0.000000e+00 0.000000e+00
1
Step 334000
Ar -8.736639e-01 0.000000e+00 0.000000e+00
1
Step 335000
Ar -9.592298e-01 0.000000e+00 0.000000e+00
1
Step 336000
Ar -9.211244e-01 0.000000e+00 0.000000e+00
1
Step 337000
Ar -8.870721e-01 0.000000e+00 0.000000e+00
1
Step 338000
Ar -9.171093e-01 0.000000e+00 0.000000e+00
1
Step 339000
Ar -9.320665e-01 0.000000e+00 0.000000e+00
1
Step 340000
Ar -9.115283e-01 0.000000e+00 0.000000e+00
1
Step 341000
Ar -9.431759e-01 0.000000e+00 0.000000e+00
1
Step 342000
Ar -9.400169e-01 0.000000e+00 0.000000e+00
1
Step 343000
Ar -9.242855e-01 0.000000e+00 0.000000e+00
1
Step 344000
Ar -9.370594e-01 0.000000e+00 0.000000e+00
1
Step 345000
Ar -9.362167e-01 0.000000e+00 0.000000e+00
1
Step 346000
Ar -1.034296e+00 0.000000e+00 0.000000e+00
1
Step 347000
Ar -1.023373e+00 0.000000e+00 0.000000e+00
1
Step 348000
Ar -9.980871e-01 0.000000e+00 0.000000e+00
1
Step 349000
Ar -1.033687e+00 0.000000e+00 0.000000e+00
1
Step 350000
Ar -9.920382e-01 0.000000e+00 0.000000e+00
1
Step 351000
Ar -1.032228e+00 0.000000e+00 0.000000e+00
1
Step 352000
Ar -1.052654e+00 0.000000e+00 0.000000e+00
1
Step 353000
Ar -9.430394e-01 0.000000e+00 0.000000e+00
1
Step 354000
Ar -1.012449e+00 0.000000e+00 0.000000e+00
1
Step 355000
Ar -1.032657e+00 0.000000e+00 0.000000e+00
1
Step 356000
Ar -1.042913e+00 0.000000e+00 0.000000e+00
1
Step 357000
Ar -1.042506e+00 0.000000e+00 0.000000e+00
1
Step 358000
Ar -1.007447e+00 0.000000e+00 0.000000e+00
1
Step 359000
Ar -1.003476e+00 0.000000e+00 0.000000e+00
1
Step 360000
Ar -9.975238e-01 0.000000e+00 0.000000e+00
1
Step 361000
Ar -1.048463e+00 0.000000e+00 0.000000e+00
1
Step 362000
Ar -1.046922e+00 0.000000e+00 0.000000e+00
1
Step 363000
Ar -1.105267e+00 0.000000e+00 0.000000e+00
1
Step 364000
Ar -1.124594e+00 0.000000e+00 0.000000e+00
1
Step 365000
Ar -1.161352e+00 0.000000e+00 0.000000e+00
1
Step 366000
Ar -1.044418e+00 0.000000e+00 0.000000e+00
1
Step 367000
Ar -1.041171e+00 0.000000e+00 0.000000e+00
1
Step 368000
Ar -1.109846e+00 0.000000e+00 0.000000e+00
1
Step 369000
Ar -1.133445e+00 0.000000e+00 0.000000e+00
1
Step 370000
Ar -1.142375e+00 0.000000e+00 0.000000e+00
1
Step 371000
Ar -1.028265e+00 0.000000e+00 0.000000e+00
1
Step 372000
Ar -1.023716e+00 0.000000e+00 0.000000e+00
1
Step 373000
Ar -1.062747e+00 0.000000e+00 0.000000e+00
1
Step 374000
Ar -1.110674e+00 0.000000e+00 0.000000e+00
1
Step 375000
Ar -1.115897e+00 0.000000e+00 0.000000e+00
1
Step 376000
Ar -1.128413e+00 0.000000e+00 0.000000e+00
1
Step 377000
Ar -1.100819e+00 0.000000e+00 0.000000e+00
1
Step 378000
Ar -1.066211e+00 0.000000e+00 0.000000e+00
1
Step 379000
Ar -1.015152e+00 0.000000e+00 0.000000e+00
1
Step 380000
Ar -1.010097e+00 0.000000e+00 0.000000e+00
1
Step 381000
Ar -1.191959e+00 0.000000e+00 0.000000e+00
1
Step 382000
Ar -1.282117e+00 0.000000e+00 0.000000e+00
1
Step 383000
Ar -1.176255e+00 0.000000e+00 0.000000e+00
1
Step 384000
Ar -1.126860e+00 0.000000e+00 0.000000e+00
1
Step 385000
Ar -1.051229e+00 0.000000e+00 0.000000e+00
1
Step 386000
Ar -1.009848e+00 0.000000e+00 0.000000e+00
1
Step 387000
Ar -1.023575e+00 0.000000e+00 0.000000e+00
1
Step 388000
Ar -1.022524e+00 0.000000e+00 0.000000e+00
1
Step 389000
Ar -1.204367e+00 0.000000e+00 0.000000e+00
1
Step 390000
Ar -1.204589e+00 0.000000e+00 0.000000e+00
1
Step 391000
Ar -1.099090e+00 0.000000e+00 0.000000e+00
1
Step 392000
Ar -1.105320e+00 0.000000e+00 0.000000e+00
1
Step 393000
Ar -1.107421e+00 0.000000e+00 0.000000e+00
1
Step 394000
Ar -1.098726e+00 0.000000e+00 0.000000e+00
1
Step 395000
Ar -1.095182e+00 0.000000e+00 0.000000e+00
1
Step 396000
Ar -1.167440e+00 0.000000e+00 0.000000e+00
1
Step 397000
Ar -1.182099e+00 0.000000e+00 0.000000e+00
1
Step 398000
Ar -1.171144e+00 0.000000e+00 0.000000e+00
1
Step 399000
Ar -1.181438e+00 0.000000e+00 0.000000e+00
1
Step 400000
Ar -1.173577e+00 0.000000e+00 0.000000e+00
1
Step 401000
Ar -1.131322e+00 0.000000e+00 0.000000e+00
1
Step 402000
Ar -1.131254e+00 0.000000e+00 0.000000e+00
1
Step 403000
Ar -1.125334e+00 0.000000e+00 0.000000e+00
1
Step 404000
Ar -1.129517e+00 0.000000e+00 0.000000e+00
1
Step 405000
Ar -1.131081e+00 0.000000e+00 0.000000e+00
1
Step 406000
Ar -1.153986e+00 0.000000e+00 0.000000e+00
1
Step 407000
Ar -1.153768e+00 0.000000e+00 0.000000e+00
1
Step 408000
Ar -1.150061e+00 0.000000e+00 0.000000e+00
1
Step 409000
Ar -1.231294e+00 0.000000e+00 0.000000e+00
1
Step 410000
Ar -1.225140e+00 0.000000e+00 0.000000e+00
1
Step 411000
Ar -1.242800e+00 0.000000e+00 0.000000e+00
1
Step 412000
Ar -1.246603e+00 0.000000e+00 0.000000e+00
1
Step 413000
Ar -1.236396e+00 0.000000e+00 0.000000e+00
1
Step 414000
Ar -1.246562e+00 0.000000e+00 0.000000e+00
1
Step 415000
Ar -1.242231e+00 0.000000e+00 0.000000e+00
1
Step 416000
Ar -1.070200e+00 0.000000e+00 0.000000e+00
1
Step 417000
Ar -1.080062e+00 0.000000e+00 0.000000e+00
1
Step 418000
Ar -1.073554e+00 0.000000e+00 0.000000e+00
1
Step 419000
Ar -1.070765e+00 0.000000e+00 0.000000e+00
1
Step 420000
Ar -1.067668e+00 0.000000e+00 0.000000e+00
1
Step 421000
Ar -1.074125e+00 0.000000e+00 0.000000e+00
1
Step 422000
Ar -1.079902e+00 0.000000e+00 0.000000e+00
1
Step 423000
Ar -1.151694e+00 0.000000e+00 0.000000e+00
1
Step 424000
Ar -1.075774e+00 0.000000e+00 0.000000e+00
1
Step 425000
Ar -1.073853e+00 0.000000e+00 0.000000e+00
1
Step 426000
Ar -1.279843e+00 0.000000e+00 0.000000e+00
1
Step 427000
Ar -1.305549e+00 0.000000e+00 0.000000e+00
1
Step 428000
Ar -1.278202e+00 0.000000e+00 0.000000e+00
1
Step 429000
Ar -1.271231e+00 0.000000e+00 0.000000e+00
1
Step 430000
Ar -1.290560e+00 0.000000e+00 0.000000e+00
1
Step 431000
Ar -1.110311e+00 0.000000e+00 0.000000e+00
1
Step 432000
Ar -1.102656e+00 0.000000e+00 0.000000e+00
1
Step 433000
Ar -1.103837e+00 0.000000e+00 0.000000e+00
1
Step 434000
Ar -1.153921e+00 0.000000e+00 0.000000e+00
1
Step 435000
Ar -1.146342e+00 0.000000e+00 0.000000e+00
1
Step 436000
Ar -1.213982e+00 0.000000e+00 0.000000e+00
1
Step 437000
Ar -1.217758e+00 0.000000e+00 0.000000e+00
1
Step 438000
Ar -1.212534e+00 0.000000e+00 0.000000e+00
1
Step 439000
Ar -1.295191e+00 0.000000e+00 0.000000e+00
1
Step 440000
Ar -1.325880e+00 0.000000e+00 0.000000e+00
1
Step 441000
Ar -1.306310e+00 0.000000e+00 0.000000e+00
1
Step 442000
Ar -1.308391e+00 0.000000e+00 0.000000e+00
1
Step 443000
Ar -1.090550e+00 0.000000e+00 0.000000e+00
1
Step 444000
Ar -1.101024e+00 0.000000e+00 0.000000e+00
1
Step 445000
Ar -1.105449e+00 0.000000e+00 0.000000e+00
1
Step 446000
Ar -1.123683e+00 0.000000e+00 0.000000e+00
1
Step 447000
Ar -1.125716e+00 0.000000e+00 0.000000e+00
1
Step 448000
Ar -1.073971e+00 0.000000e+00 0.000000e+00
1
Step 449000
Ar -9.244249e-01 0.000000e+00 0.000000e+00
1
Step 450000
Ar -9.283982e-01 0.000000e+00 0.000000e+00
1
Step 451000
Ar -7.009361e-01 0.000000e+00 0.000000e+00
1
Step 452000
Ar -6.719873e-01 0.000000e+00 0.000000e+00
1
Step 453000
Ar -7.243246e-01 0.000000e+00 0.000000e+00
1
Step 454000
Ar -6.686920e-01 0.000000e+00 0.000000e+00
1
Step 455000
Ar -6.905659e-01 0.000000e+00 0.000000e+00
1
Step 456000
Ar -8.707172e-01 0.000000e+00 0.000000e+00
1
Step 457000
Ar -8.946128e-01 0.000000e+00 0.000000e+00
1
Step 458000
Ar -8.646715e-01 0.000000e+00 0.000000e+00
1
Step 459000
Ar -8.819222e-01 0.000000e+00 0.000000e+00
1
Step 460000
Ar -8.701907e-01 0.000000e+00 0.000000e+00
1
Step 461000
Ar -8.531720e-01 0.000000e+00 0.000000e+00
1
Step 462000
Ar -8.544979e-01 0.000000e+00 0.000000e+00
1
Step 463000
Ar -8.856446e-01 0.000000e+00 0.000000e+00
1
Step 464000
Ar -8.981084e-01 0.000000e+00 0.000000e+00
1
Step 465000
Ar -8.863274e-01 0.000000e+00 0.000000e+00
1
Step 466000
Ar -8.576299e-01 0.000000e+00 0.000000e+00
1
Step 467000
Ar -8.548404e-01 0.000000e+00 0.000000e+00
1
Step 468000
Ar -8.547308e-01 0.000000e+00 0.000000e+00
1
Step 469000
Ar -8.534469e-01 0.000000e+00 0.000000e+00
1
Step 470000
Ar -8.598289e-01 0.000000e+00 0.000000e+00
1
Step 471000
Ar -7.128558e-01 0.000000e+00 0.000000e+00
1
Step 472000
Ar -7.276079e-01 0.000000e+00 0.000000e+00
1
Step 473000
Ar -6.968650e-01 0.000000e+00 0.000000e+00
1
Step 474000
Ar -7.164537e-01 0.000000e+00 0.000000e+00
1
Step 475000
Ar -7.234236e-01 0.000000e+00 0.000000e+00
1
Step 476000
Ar -9.166401e-01 0.000000e+00 0.000000e+00
1
Step 477000
Ar -9.236340e-01 0.000000e+00 0.000000e+00
1
Step 478000
Ar -8.993872e-01 0.000000e+00 0.000000e+00
1
Step 479000
Ar -9.010142e-01 0.000000e+00 0.000000e+00
1
Step 480000
Ar -8.980808e-01 0.000000e+00 0.000000e+00
1
Step 481000
Ar -8.762012e-01 0.000000e+00 0.000000e+00
1
Step 482000
Ar -8.102516e-01 0.000000e+00 0.000000e+00
1
Step 483000
Ar -8.010209e-01 0.000000e+00 0.000000e+00
1
Step 484000
Ar -7.943758e-01 0.000000e+00 0.000000e+00
1
Step 485000
Ar -8.031483e-01 0.000000e+00 0.000000e+00
1
Step 486000
Ar -8.694144e-01 0.000000e+00 0.000000e+00
1
Step 487000
Ar -9.030274e-01 0.000000e+00 0.000000e+00
1
Step 488000
Ar -8.187025e-01 0.000000e+00 0.000000e+00
1
Step 489000
Ar -8.197831e-01 0.000000e+00 0.000000e+00
1
Step 490000
Ar -8.263376e-01 0.000000e+00 0.000000e+00
1
Step 491000
Ar -7.906674e-01 0.000000e+00 0.000000e+00
1
Step 492000
Ar -7.871995e-01 0.000000e+00 0.000000e+00
1
Step 493000
Ar -7.726397e-01 0.000000e+00 0.000000e+00
1
Step 494000
Ar -7.847268e-01 0.000000e+00 0.000000e+00
1
Step 495000
Ar -7.909898e-01 0.000000e+00 0.000000e+00
1
Step 496000
Ar -4.191287e-01 0.000000e+00 0.000000e+00
1
Step 497000
Ar -6.495692e-01 0.000000e+00 0.000000e+00
1
Step 498000
Ar -4.499492e-01 0.000000e+00 0.000000e+00
1
Step 499000
Ar -5.690334e-01 0.000000e+00 0.000000e+00
1
Step 500000
Ar -5.727768e-01 0.000000e+00 0.000000e+00
1
Step 501000
Ar -5.008309e-01 0.000000e+00 0.000000e+00
1
Step 502000
Ar -5.247912e-01 0.000000e+00 0.000000e+00
1
Step 503000
Ar -3.003211e-01 0.000000e+00 0.000000e+00
1
Step 504000
Ar -2.078426e-01 0.000000e+00 0.000000e+00
1
Step 505000
Ar -2.795286e-01 0.000000e+00 0.000000e+00
1
Step 506000
Ar -2.308056e-01 0.000000e+00 0.000000e+00
1
Step 507000
Ar 8.597143e-02 0.000000e+00 0.000000e+00
1
Step 508000
Ar 1.092830e-01 0.000000e+00 0.000000e+00
1
Step 509000
Ar -1.829004e-02 0.000000e+00 0.000000e+00
1
Step 510000
Ar 1.784331e-02 0.000000e+00 0.000000e+00
1
Step 511000
Ar -1.621469e-01 0.000000e+00 0.000000e+00
1
Step 512000
Ar -1.718967e-01 0.000000e+00 0.000000e+00
1
Step 513000
Ar 6.913313e-03 0.000000e+00 0.000000e+00
1
Step 514000
Ar -1.413958e-01 0.000000e+00 0.000000e+00
1
Step 515000
Ar -2.348710e-01 0.000000e+00 0.000000e+00
1
Step 516000
Ar -3.007868e-02 0.000000e+00 0.000000e+00
1
Step 517000
Ar -1.067395e-01 0.000000e+00 0.000000e+00
1
Step 518000
Ar -7.714417e-01 0.000000e+00 0.000000e+00
1
Step 519000
Ar -7.750253e-01 0.000000e+00 0.000000e+00
1
Step 520000
Ar -7.527587e-01 0.000000e+00 0.000000e+00
1
Step 521000
Ar -6.803325e-01 0.000000e+00 0.000000e+00
1
Step 522000
Ar -4.921774e-01 0.000000e+00 0.000000e+00
1
Step 523000
Ar -5.276261e-01 0.000000e+00 0.000000e+00
1
Step 524000
Ar -4.411113e-01 0.000000e+00 0.000000e+00
1
Step 525000
Ar -4.251903e-01 0.000000e+00 0.000000e+00
1
Step 526000
Ar -5.018393e-01 0.000000e+00 0.000000e+00
1
Step 527000
Ar -5.219654e-01 0.000000e+00 0.000000e+00
1
Step 528000
Ar -5.173321e-01 0.000000e+00 0.000000e+00
1
Step 529000
Ar -4.538399e-01 0.000000e+00 0.000000e+00
1
Step 530000
Ar -5.333108e-01 0.000000e+00 0.000000e+00
1
Step 531000
Ar -5.484780e-01 0.000000e+00 0.000000e+00
1
Step 532000
Ar -5.437444e-01 0.000000e+00 0.000000e+00
1
Step 533000
Ar -5.453677e-01 0.000000e+00 0.000000e+00
1
Step 534000
Ar -5.561764e-01 0.000000e+00 0.000000e+00
1
Step 535000
Ar -5.483264e-01 0.000000e+00 0.000000e+00
1
Step 536000
Ar -4.752718e-01 0.000000e+00 0.000000e+00
1
Step 537000
Ar -5.008368e-01 0.000000e+00 0.000000e+00
1
Step 538000
Ar -7.089469e-01 0.000000e+00 0.000000e+00
1
Step 539000
Ar -7.092769e-01 0.000000e+00 0.000000e+00
1
Step 540000
Ar -7.080866e-01 0.000000e+00 0.000000e+00
1
Step 541000
Ar -5.852002e-01 0.000000e+00 0.000000e+00
1
Step 542000
Ar -6.753492e-01 0.000000e+00 0.000000e+00
1
Step 543000
Ar -6.748096e-01 0.000000e+00 0.000000e+00
1
Step 544000
Ar -6.316097e-01 0.000000e+00 0.000000e+00
1
Step 545000
Ar -6.631751e-01 0.000000e+00 0.000000e+00
1
Step 546000
Ar -7.009517e-01 0.000000e+00 0.000000e+00
1
Step 547000
Ar -6.993077e-01 0.000000e+00 0.000000e+00
1
Step 548000
Ar -7.497480e-01 0.000000e+00 0.000000e+00
1
Step 549000
Ar -6.136276e-01 0.000000e+00 0.000000e+00
1
Step 550000
Ar -6.193008e-01 0.000000e+00 0.000000e+00
1
Step 551000
Ar -6.448256e-01 0.000000e+00 0.000000e+00
1
Step 552000
Ar -6.533201e-01 0.000000e+00 0.000000e+00
1
Step 553000
Ar -6.575840e-01 0.000000e+00 0.000000e+00
1
Step 554000
Ar -6.406035e-01 0.000000e+00 0.000000e+00
1
Step 555000
Ar -6.364406e-01 0.000000e+00 0.000000e+00
1
Step 556000
Ar -5.878938e-01 0.000000e+00 0.000000e+00
1
Step 557000
Ar -5.842038e-01 0.000000e+00 0.000000e+00
1
Step 558000
Ar -5.939448e-01 0.000000e+00 0.000000e+00
1
Step 559000
Ar -5.878356e-01 0.000000e+00 0.000000e+00
1
Step 560000
Ar -5.937744e-01 0.000000e+00 0.000000e+00
1
Step 561000
Ar -4.866838e-01 0.000000e+00 0.000000e+00
1
Step 562000
Ar -4.746555e-01 0.000000e+00 0.000000e+00
1
Step 563000
Ar -5.170836e-01 0.000000e+00 0.000000e+00
1
Step 564000
Ar -5.175458e-01 0.000000e+00 0.000000e+00
1
Step 565000
Ar -4.843674e-01 0.000000e+00 0.000000e+00
1
Step 566000
Ar -4.497511e-01 0.000000e+00 0.000000e+00
1
Step 567000
Ar -4.677974e-01 0.000000e+00 0.000000e+00
1
Step 568000
Ar -4.421397e-01 0.000000e+00 0.000000e+00
1
Step 569000
Ar -4.505074e-01 0.000000e+00 0.000000e+00
1
Step 570000
Ar -4.683512e-01 0.000000e+00 0.000000e+00
1
Step 571000
Ar -7.344123e-01 0.000000e+00 0.000000e+00
1
Step 572000
Ar -6.745377e-01 0.000000e+00 0.000000e+00
1
Step 573000
Ar -6.736664e-01 0.000000e+00 0.000000e+00
1
Step 574000
Ar -7.262472e-01 0.000000e+00 0.000000e+00
1
Step 575000
Ar -6.798532e-01 0.000000e+00 0.000000e+00
1
Step 576000
Ar -6.745354e-01 0.000000e+00 0.000000e+00
1
Step 577000
Ar -6.035010e-01 0.000000e+00 0.000000e+00
1
Step 578000
Ar -6.100505e-01 0.000000e+00 0.000000e+00
1
Step 579000
Ar -6.047613e-01 0.000000e+00 0.000000e+00
1
Step 580000
Ar -6.107626e-01 0.000000e+00 0.000000e+00
1
Step 581000
Ar -7.050832e-01 0.000000e+00 0.000000e+00
1
Step 582000
Ar -7.334760e-01 0.000000e+00 0.000000e+00
1
Step 583000
Ar -6.962700e-01 0.000000e+00 0.000000e+00
1
Step 584000
Ar -6.743608e-01 0.000000e+00 0.000000e+00
1
Step 585000
Ar -6.471994e-01 0.000000e+00 0.000000e+00
1
Step 586000
Ar -6.985370e-01 0.000000e+00 0.000000e+00
1
Step 587000
Ar -6.479764e-01 0.000000e+00 0.000000e+00
1
Step 588000
Ar -7.153731e-01 0.000000e+00 0.000000e+00
1
Step 589000
Ar -7.357469e-01 0.000000e+00 0.000000e+00
1
Step 590000
Ar -7.343315e-01 0.000000e+00 0.000000e+00
1
Step 591000
Ar -6.992379e-01 0.000000e+00 0.000000e+00
1
Step 592000
Ar -6.729177e-01 0.000000e+00 0.000000e+00
1
Step 593000
Ar -5.981473e-01 0.000000e+00 0.000000e+00
1
Step 594000
Ar -6.050942e-01 0.000000e+00 0.000000e+00
1
Step 595000
Ar -5.830752e-01 0.000000e+00 0.000000e+00
1
Step 596000
Ar -6.087580e-01 0.000000e+00 0.000000e+00
1
Step 597000
Ar -6.003459e-01 0.000000e+00 0.000000e+00
1
Step 598000
Ar -6.877417e-01 0.000000e+00 0.000000e+00
1
Step 599000
Ar -7.159760e-01 0.000000e+00 0.000000e+00
1
Step 600000
Ar -6.980464e-01 0.000000e+00 0.000000e+00
1
Step 601000
Ar -9.160832e-01 0.000000e+00 0.000000e+00
1
Step 602000
Ar -9.198359e-01 0.000000e+00 0.000000e+00
1
Step 603000
Ar -7.690367e-01 0.000000e+00 0.000000e+00
1
Step 604000
Ar -9.651883e-01 0.000000e+00 0.000000e+00
1
Step 605000
Ar -9.832884e-01 0.000000e+00 0.000000e+00
1
Step 606000
Ar -7.779603e-01 0.000000e+00 0.000000e+00
1
Step 607000
Ar -7.821199e-01 0.000000e+00 0.000000e+00
1
Step 608000
Ar -1.102024e+00 0.000000e+00 0.000000e+00
1
Step 609000
Ar -9.427259e-01 0.000000e+00 0.000000e+00
1
Step 610000
Ar -9.738095e-01 0.000000e+00 0.000000e+00
1
Step 611000
Ar -7.718879e-01 0.000000e+00 0.000000e+00
1
Step 612000
Ar -7.713831e-01 0.000000e+00 0.000000e+00
1
Step 613000
Ar -7.663755e-01 0.000000e+00 0.000000e+00
1
Step 614000
Ar -7.692903e-01 0.000000e+00 0.000000e+00
1
Step 615000
Ar -7.736312e-01 0.000000e+00 0.000000e+00
1
Step 616000
Ar -8.771814e-01 0.000000e+00 0.000000e+00
1
Step 617000
Ar -8.747955e-01 0.000000e+00 0.000000e+00
1
Step 618000
Ar -8.167708e-01 0.000000e+00 0.000000e+00
1
Step 619000
Ar -8.313080e-01 0.000000e+00 0.000000e+00
1
Step 620000
Ar -9.515832e-01 0.000000e+00 0.000000e+00
1
Step 621000
Ar -9.132893e-01 0.000000e+00 0.000000e+00
1
Step 622000
Ar -8.789607e-01 0.000000e+00 0.000000e+00
1
Step 623000
Ar -1.022136e+00 0.000000e+00 0.000000e+00
1
Step 624000
Ar -1.020177e+00 0.000000e+00 0.000000e+00
1
Step 625000
Ar -1.028895e+00 0.000000e+00 0.000000e+00
1
Step 626000
Ar -1.105494e+00 0.000000e+00 0.000000e+00
1
Step 627000
Ar -1.125471e+00 0.000000e+00 0.000000e+00
1
Step 628000
Ar -1.137701e+00 0.000000e+00 0.000000e+00
1
Step 629000
Ar -1.075921e+00 0.000000e+00 0.000000e+00
1
Step 630000
Ar -1.063458e+00 0.000000e+00 0.000000e+00
1
Step 631000
Ar -7.648744e-01 0.000000e+00 0.000000e+00
1
Step 632000
Ar -9.249400e-01 0.000000e+00 0.000000e+00
1
Step 633000
Ar -8.144859e-01 0.000000e+00 0.000000e+00
1
Step 634000
Ar -8.161671e-01 0.000000e+00 0.000000e+00
1
Step 635000
Ar -8.166450e-01 0.000000e+00 0.000000e+00
1
Step 636000
Ar -9.199321e-01 0.000000e+00 0.000000e+00
1
Step 637000
Ar -8.550346e-01 0.000000e+00 0.000000e+00
1
Step 638000
Ar -8.502090e-01 0.000000e+00 0.000000e+00
1
Step 639000
Ar -9.205421e-01 0.000000e+00 0.000000e+00
1
Step 640000
Ar -8.450510e-01 0.000000e+00 0.000000e+00
1
Step 641000
Ar -8.517435e-01 0.000000e+00 0.000000e+00
1
Step 642000
Ar -8.533298e-01 0.000000e+00 0.000000e+00
1
Step 643000
Ar -9.649927e-01 0.000000e+00 0.000000e+00
1
Step 644000
Ar -9.643566e-01 0.000000e+00 0.000000e+00
1
Step 645000
Ar -7.940555e-01 0.000000e+00 0.000000e+00
1
Step 646000
Ar -9.823942e-01 0.000000e+00 0.000000e+00
1
Step 647000
Ar -8.728549e-01 0.000000e+00 0.000000e+00
1
Step 648000
Ar -9.764061e-01 0.000000e+00 0.000000e+00
1
Step 649000