1
Step 120000
Ar 9.555032e-01 0.000000e+00 0.000000e+00
1
Step 121000
Ar 9.594109e-01 0.000000e+00 0.000000e+00
1
Step 122000
Ar 9.355454e-01 0.000000e+00 0.000000e+00
1
Step 123000
Ar 9.707939e-01 0.000000e+00 0.000000e+00
1
Step 124000
Ar 8.727511e-01 0.000000e+00 0.000000e+00
1
Step 125000
Ar 9.412562e-01 0.000000e+00 0.000000e+00
1
Step 126000
Ar 1.063349e+00 0.000000e+00 0.000000e+00
1
Step 127000
Ar 1.183545e+00 0.000000e+00 0.000000e+00
1
Step 128000
Ar 1.095965e+00 0.000000e+00 0.000000e+00
1
Step 129000
Ar 9.588956e-01 0.000000e+00 0.000000e+00
1
Step 130000
Ar 1.036679e+00 0.000000e+00 0.000000e+00
1
Step 131000
Ar 1.085176e+00 0.000000e+00 0.000000e+00
1
Step 132000
Ar 1.184471e+00 0.000000e+00 0.000000e+00
1
Step 133000
Ar 1.163126e+00 0.000000e+00 0.000000e+00
1
Step 134000
Ar 1.175162e+00 0.000000e+00 0.000000e+00
1
Step 135000
Ar 1.051057e+00 0.000000e+00 0.000000e+00
1
Step 136000
Ar 8.382458e-01 0.000000e+00 0.000000e+00
1
Step 137000
Ar 8.698428e-01 0.000000e+00 0.000000e+00
1
Step 138000
Ar 8.254359e-01 0.000000e+00 0.000000e+00
1
Step 139000
Ar 8.812183e-01 0.000000e+00 0.000000e+00
1
Step 140000
Ar 8.679563e-01 0.000000e+00 0.000000e+00
1
Step 141000
Ar 8.555255e-01 0.000000e+00 0.000000e+00
1
Step 142000
Ar 7.691688e-01 0.000000e+00 0.000000e+00
1
Step 143000
Ar 8.296153e-01 0.000000e+00 0.000000e+00
1
Step 144000
Ar 7.749066e-01 0.000000e+00 0.000000e+00
1
Step 145000
Ar 8.465414e-01 0.000000e+00 0.000000e+00
1
Step 146000
Ar 7.692658e-01 0.000000e+00 0.000000e+00
1
Step 147000
Ar 8.013102e-01 0.000000e+00 0.000000e+00
1
Step 148000
Ar 7.349090e-01 0.000000e+00 0.000000e+00
1
Step 149000
Ar 8.129751e-01 0.000000e+00 0.000000e+00
1
Step 150000
Ar 7.913349e-01 0.000000e+00 0.000000e+00
1
Step 151000
Ar 8.266945e-01 0.000000e+00 0.000000e+00
1
Step 152000
Ar 8.228259e-01 0.000000e+00 0.000000e+00
1
Step 153000
Ar 8.248938e-01 0.000000e+00 0.000000e+00
1
Step 154000
Ar 8.057402e-01 0.000000e+00 0.000000e+00
1
Step 155000
Ar 8.111350e-01 0.000000e+00 0.000000e+00
1
Step 156000
Ar 7.571313e-01 0.000000e+00 0.000000e+00
1
Step 157000
Ar 5.961379e-01 0.000000e+00 0.000000e+00
1
Step 158000
Ar 7.720289e-01 0.000000e+00 0.000000e+00
1
Step 159000
Ar 7.100436e-01 0.000000e+00 0.000000e+00
1
Step 160000
Ar 7.018072e-01 0.000000e+00 0.000000e+00
1
Step 161000
Ar -8.155006e-01 0.000000e+00 0.000000e+00
1
Step 162000
Ar -7.310707e-01 0.000000e+00 0.000000e+00
1
Step 163000
Ar -1.105337e+00 0.000000e+00 0.000000e+00
1
Step 164000
Ar -9.664404e-01 0.000000e+00 0.000000e+00
1
Step 165000
Ar -1.043656e+00 0.000000e+00 0.000000e+00
1
Step 166000
Ar -9.285716e-01 0.000000e+00 0.000000e+00
1
Step 167000
Ar -1.028867e+00 0.000000e+00 0.000000e+00
1
Step 168000
Ar -9.239964e-01 0.000000e+00 0.000000e+00
1
Step 169000
Ar -9.873949e-01 0.000000e+00 0.000000e+00
1
Step 170000
Ar -9.717479e-01 0.000000e+00 0.000000e+00
1
Step 171000
Ar -8.673320e-01 0.000000e+00 0.000000e+00
1
Step 172000
Ar -9.179941e-01 0.000000e+00 0.000000e+00
1
Step 173000
Ar -9.509905e-01 0.000000e+00 0.000000e+00
1
Step 174000
Ar -8.639493e-01 0.000000e+00 0.000000e+00
1
Step 175000
Ar -9.000608e-01 0.000000e+00 0.000000e+00
1
Step 176000
Ar -8.549483e-01 0.000000e+00 0.000000e+00
1
Step 177000
Ar -8.599085e-01 0.000000e+00 0.000000e+00
1
Step 178000
Ar -8.133524e-01 0.000000e+00 0.000000e+00
1
Step 179000
Ar -8.175090e-01 0.000000e+00 0.000000e+00
1
Step 180000
Ar -8.400052e-01 0.000000e+00 0.000000e+00
1
Step 181000
Ar -8.165202e-01 0.000000e+00 0.000000e+00
1
Step 182000
Ar -8.103920e-01 0.000000e+00 0.000000e+00
1
Step 183000
Ar -7.715443e-01 0.000000e+00 0.000000e+00
1
Step 184000
Ar -6.422037e-01 0.000000e+00 0.000000e+00
1
Step 185000
Ar -7.066110e-01 0.000000e+00 0.000000e+00
1
Step 186000
Ar -6.879467e-01 0.000000e+00 0.000000e+00
1
Step 187000
Ar -6.472825e-01 0.000000e+00 0.000000e+00
1
Step 188000
Ar -6.347303e-01 0.000000e+00 0.000000e+00
1
Step 189000
Ar -6.362610e-01 0.000000e+00 0.000000e+00
1
Step 190000
Ar -6.305775e-01 0.000000e+00 0.000000e+00
1
Step 191000
Ar -6.615187e-01 0.000000e+00 0.000000e+00
1
Step 192000
Ar -6.449335e-01 0.000000e+00 0.000000e+00
1
Step 193000
Ar -6.904791e-01 0.000000e+00 0.000000e+00
1
Step 194000
Ar -6.781622e-01 0.000000e+00 0.000000e+00
1
Step 195000
Ar -6.957975e-01 0.000000e+00 0.000000e+00
1
Step 196000
Ar -6.816854e-01 0.000000e+00 0.000000e+00
1
Step 197000
Ar -6.677489e-01 0.000000e+00 0.000000e+00
1
Step 198000
Ar -6.420009e-01 0.000000e+00 0.000000e+00
1
Step 199000
Ar -6.555401e-01 0.000000e+00 0.000000e+00
1
Step 200000
Ar -6.642341e-01 0.000000e+00 0.000000e+00
1
Step 201000
Ar -6.488535e-01 0.000000e+00 0.000000e+00
1
Step 202000
Ar -6.476913e-01 0.000000e+00 0.000000e+00
1
Step 203000
Ar -6.397295e-01 0.000000e+00 0.000000e+00
1
Step 204000
Ar -6.543273e-01 0.000000e+00 0.000000e+00
1
Step 205000
Ar -6.526468e-01 0.000000e+00 0.000000e+00
1
Step 206000
Ar -5.260356e-01 0.000000e+00 0.000000e+00
1
Step 207000
Ar -4.918109e-01 0.000000e+00 0.000000e+00
1
Step 208000
Ar -4.937001e-01 0.000000e+00 0.000000e+00
1
Step 209000
Ar -5.215467e-01 0.000000e+00 0.000000e+00
1
Step 210000
Ar -4.624662e-01 0.000000e+00 0.000000e+00
1
Step 211000
Ar 6.803071e-01 0.000000e+00 0.000000e+00
1
Step 212000
Ar 6.663121e-01 0.000000e+00 0.000000e+00
1
Step 213000
Ar 6.394460e-01 0.000000e+00 0.000000e+00
1
Step 214000
Ar 6.409802e-01 0.000000e+00 0.000000e+00
1
Step 215000
Ar 6.668361e-01 0.000000e+00 0.000000e+00
1
Step 216000
Ar 8.869341e-01 0.000000e+00 0.000000e+00
1
Step 217000
Ar 9.269573e-01 0.000000e+00 0.000000e+00
1
Step 218000
Ar 8.944978e-01 0.000000e+00 0.000000e+00
1
Step 219000
Ar 9.201378e-01 0.000000e+00 0.000000e+00
1
Step 220000
Ar 8.968572e-01 0.000000e+00 0.000000e+00
1
Step 221000
Ar 9.242936e-01 0.000000e+00 0.000000e+00
1
Step 222000
Ar 9.287358e-01 0.000000e+00 0.000000e+00
1
Step 223000
Ar 9.180242e-01 0.000000e+00 0.000000e+00
1
Step 224000
Ar 9.319159e-01 0.000000e+00 0.000000e+00
1
Step 225000
Ar 9.260212e-01 0.000000e+00 0.000000e+00
1
Step 226000
Ar 7.170026e-01 0.000000e+00 0.000000e+00
1
Step 227000
Ar 7.657996e-01 0.000000e+00 0.000000e+00
1
Step 228000
Ar 7.537371e-01 0.000000e+00 0.000000e+00
1
Step 229000
Ar 7.458393e-01 0.000000e+00 0.000000e+00
1
Step 230000
Ar 7.403175e-01 0.000000e+00 0.000000e+00
1
Step 231000
Ar 7.679384e-01 0.000000e+00 0.000000e+00
1
Step 232000
Ar 7.735594e-01 0.000000e+00 0.000000e+00
1
Step 233000
Ar 7.663066e-01 0.000000e+00 0.000000e+00
1
Step 234000
Ar 7.618540e-01 0.000000e+00 0.000000e+00
1
Step 235000
Ar 7.749453e-01 0.000000e+00 0.000000e+00
1
Step 236000
Ar 7.597498e-01 0.000000e+00 0.000000e+00
1
Step 237000
Ar 7.635343e-01 0.000000e+00 0.000000e+00
1
Step 238000
Ar 7.555260e-01 0.000000e+00 0.000000e+00
1
Step 239000
Ar 7.581483e-01 0.000000e+00 0.000000e+00
1
Step 240000
Ar 7.533034e-01 0.000000e+00 0.000000e+00
1
Step 241000
Ar 8.288336e-01 0.000000e+00 0.000000e+00
1
Step 242000
Ar 8.268380e-01 0.000000e+00 0.000000e+00
1
Step 243000
Ar 8.288380e-01 0.000000e+00 0.000000e+00
1
Step 244000
Ar 8.288921e-01 0.000000e+00 0.000000e+00
1
Step 245000
Ar 8.375111e-01 0.000000e+00 0.000000e+00
1
Step 246000
Ar 7.243829e-01 0.000000e+00 0.000000e+00
1
Step 247000
Ar 7.310515e-01 0.000000e+00 0.000000e+00
1
Step 248000
Ar 7.222761e-01 0.000000e+00 0.000000e+00
1
Step 249000
Ar 7.274483e-01 0.000000e+00 0.000000e+00
1
Step 250000
Ar 7.188044e-01 0.000000e+00 0.000000e+00
1
Step 251000
Ar 7.646407e-01 0.000000e+00 0.000000e+00
1
Step 252000
Ar 7.625682e-01 0.000000e+00 0.000000e+00
1
Step 253000
Ar 8.264594e-01 0.000000e+00 0.000000e+00
1
Step 254000
Ar 8.199291e-01 0.000000e+00 0.000000e+00
1
Step 255000
Ar 8.234562e-01 0.000000e+00 0.000000e+00
1
Step 256000
Ar 6.278897e-01 0.000000e+00 0.000000e+00
1
Step 257000
Ar 5.857463e-01 0.000000e+00 0.000000e+00
1
Step 258000
Ar 4.331447e-01 0.000000e+00 0.000000e+00
1
Step 259000
Ar 5.824962e-01 0.000000e+00 0.000000e+00
1
Step 260000
Ar 6.056310e-01 0.000000e+00 0.000000e+00
1
Step 261000
Ar 5.930284e-01 0.000000e+00 0.000000e+00
1
Step 262000
Ar 1.662982e-01 0.000000e+00 0.000000e+00
1
Step 263000
Ar 5.745202e-01 0.000000e+00 0.000000e+00
1
Step 264000
Ar 5.278966e-01 0.000000e+00 0.000000e+00
1
Step 265000
Ar 5.799666e-01 0.000000e+00 0.000000e+00
1
Step 266000
Ar 6.377844e-01 0.000000e+00 0.000000e+00
1
Step 267000
Ar 6.519356e-01 0.000000e+00 0.000000e+00
1
Step 268000
Ar 6.203171e-01 0.000000e+00 0.000000e+00
1
Step 269000
Ar 6.390334e-01 0.000000e+00 0.000000e+00
1
Step 270000
Ar 6.361574e-01 0.000000e+00 0.000000e+00
1
Step 271000
Ar 6.875527e-01 0.000000e+00 0.000000e+00
1
Step 272000
Ar 6.879079e-01 0.000000e+00 0.000000e+00
1
Step 273000
Ar 6.837543e-01 0.000000e+00 0.000000e+00
1
Step 274000
Ar 6.805382e-01 0.000000e+00 0.000000e+00
1
Step 275000
Ar 6.856208e-01 0.000000e+00 0.000000e+00
1
Step 276000
Ar 7.664729e-01 0.000000e+00 0.000000e+00
1
Step 277000
Ar 7.677535e-01 0.000000e+00 0.000000e+00
1
Step 278000
Ar 7.634847e-01 0.000000e+00 0.000000e+00
1
Step 279000
Ar 7.659760e-01 0.000000e+00 0.000000e+00
1
Step 280000
Ar 7.645386e-01 0.000000e+00 0.000000e+00
1
Step 281000
Ar 7.277004e-01 0.000000e+00 0.000000e+00
1
Step 282000
Ar 7.299188e-01 0.000000e+00 0.000000e+00
1
Step 283000
Ar 7.295552e-01 0.000000e+00 0.000000e+00
1
Step 284000
Ar 7.328593e-01 0.000000e+00 0.000000e+00
1
Step 285000
Ar 7.271921e-01 0.000000e+00 0.000000e+00
1
Step 286000
Ar 1.105903e+00 0.000000e+00 0.000000e+00
1
Step 287000
Ar 1.098813e+00 0.000000e+00 0.000000e+00
1
Step 288000
Ar 1.263608e+00 0.000000e+00 0.000000e+00
1
Step 289000
Ar 1.164858e+00 0.000000e+00 0.000000e+00
1
Step 290000
Ar 1.247788e+00 0.000000e+00 0.000000e+00
1
Step 291000
Ar 1.322377e+00 0.000000e+00 0.000000e+00
1
Step 292000
Ar 1.293566e+00 0.000000e+00 0.000000e+00
1
Step 293000
Ar 1.316116e+00 0.000000e+00 0.000000e+00
1
Step 294000
Ar 1.321528e+00 0.000000e+00 0.000000e+00
1
Step 295000
Ar 1.280258e+00 0.000000e+00 0.000000e+00
1
Step 296000
Ar 1.089406e+00 0.000000e+00 0.000000e+00
1
Step 297000
Ar 1.125543e+00 0.000000e+00 0.000000e+00
1
Step 298000
Ar 1.086890e+00 0.000000e+00 0.000000e+00
1
Step 299000
Ar 1.149589e+00 0.000000e+00 0.000000e+00
1
Step 300000
Ar 1.084441e+00 0.000000e+00 0.000000e+00
1
Step 301000
Ar 1.106276e+00 0.000000e+00 0.000000e+00
1
Step 302000
Ar 1.104268e+00 0.000000e+00 0.000000e+00
1
Step 303000
Ar 1.121146e+00 0.000000e+00 0.000000e+00
1
Step 304000
Ar 1.103441e+00 0.000000e+00 0.000000e+00
1
Step 305000
Ar 1.135185e+00 0.000000e+00 0.000000e+00
1
Step 306000
Ar 9.984038e-01 0.000000e+00 0.000000e+00
1
Step 307000
Ar 9.742990e-01 0.000000e+00 0.000000e+00
1
Step 308000
Ar 1.011435e+00 0.000000e+00 0.000000e+00
1
Step 309000
Ar 9.823559e-01 0.000000e+00 0.000000e+00
1
Step 310000
Ar 1.018458e+00 0.000000e+00 0.000000e+00
1
Step 311000
Ar 9.851767e-01 0.000000e+00 0.000000e+00
1
Step 312000
Ar 9.962588e-01 0.000000e+00 0.000000e+00
1
Step 313000
Ar 9.669006e-01 0.000000e+00 0.000000e+00
1
Step 314000
Ar 9.906899e-01 0.000000e+00 0.000000e+00
1
Step 315000
Ar 9.924443e-01 0.000000e+00 0.000000e+00
1
Step 316000
Ar 1.004958e+00 0.000000e+00 0.000000e+00
1
Step 317000
Ar 1.006674e+00 0.000000e+00 0.000000e+00
1
Step 318000
Ar 1.002380e+00 0.000000e+00 0.000000e+00
1
Step 319000
Ar 1.006539e+00 0.000000e+00 0.000000e+00
1
Step 320000
Ar 1.000050e+00 0.000000e+00 0.000000e+00
1
Step 321000
Ar 1.229141e+00 0.000000e+00 0.000000e+00
1
Step 322000
Ar 1.173565e+00 0.000000e+00 0.000000e+00
1
Step 323000
Ar 1.209551e+00 0.000000e+00 0.000000e+00
1
Step 324000
Ar 1.195263e+00 0.000000e+00 0.000000e+00
1
Step 325000
Ar 1.153342e+00 0.000000e+00 0.000000e+00
1
Step 326000
Ar 1.217210e+00 0.000000e+00 0.000000e+00
1
Step 327000
Ar 1.172577e+00 0.000000e+00 0.000000e+00
1
Step 328000
Ar 1.203536e+00 0.000000e+00 0.000000e+00
1
Step 329000
Ar 1.174765e+00 0.000000e+00 0.000000e+00
1
Step 330000
Ar 1.200801e+00 0.000000e+00 0.000000e+00
1
Step 331000
Ar 1.302297e+00 0.000000e+00 0.000000e+00
1
Step 332000
Ar 1.291861e+00 0.000000e+00 0.000000e+00
1
Step 333000
Ar 1.294835e+00 0.000000e+00 0.000000e+00
1
Step 334000
Ar 1.303466e+00 0.000000e+00 0.000000e+00
1
Step 335000
Ar 1.292929e+00 0.000000e+00 0.000000e+00
1
Step 336000
Ar 1.342917e+00 0.000000e+00 0.000000e+00
1
Step 337000
Ar 1.333903e+00 0.000000e+00 0.000000e+00
1
Step 338000
Ar 1.337728e+00 0.000000e+00 0.000000e+00
1
Step 339000
Ar 1.327234e+00 0.000000e+00 0.000000e+00
1
Step 340000
Ar 1.325143e+00 0.000000e+00 0.000000e+00
1
Step 341000
Ar 1.363490e+00 0.000000e+00 0.000000e+00
1
Step 342000
Ar 1.360734e+00 0.000000e+00 0.000000e+00
1
Step 343000
Ar 1.397081e+00 0.000000e+00 0.000000e+00
1
Step 344000
Ar 1.348018e+00 0.000000e+00 0.000000e+00
1
Step 345000
Ar 1.394519e+00 0.000000e+00 0.000000e+00
1
Step 346000
Ar 1.418487e+00 0.000000e+00 0.000000e+00
1
Step 347000
Ar 1.408202e+00 0.000000e+00 0.000000e+00
1
Step 348000
Ar 1.448626e+00 0.000000e+00 0.000000e+00
1
Step 349000
Ar 1.429300e+00 0.000000e+00 0.000000e+00
1
Step 350000
Ar 1.434857e+00 0.000000e+00 0.000000e+00
1
Step 351000
Ar 1.454139e+00 0.000000e+00 0.000000e+00
1
Step 352000
Ar 1.452267e+00 0.000000e+00 0.000000e+00
1
Step 353000
Ar 1.451483e+00 0.000000e+00 0.000000e+00
1
Step 354000
Ar 1.451023e+00 0.000000e+00 0.000000e+00
1
Step 355000
Ar 1.473971e+00 0.000000e+00 0.000000e+00
1
Step 356000
Ar 1.489450e+00 0.000000e+00 0.000000e+00
1
Step 357000
Ar 1.508650e+00 0.000000e+00 0.000000e+00
1
Step 358000
Ar 1.523011e+00 0.000000e+00 0.000000e+00
1
Step 359000
Ar 1.490385e+00 0.000000e+00 0.000000e+00
1
Step 360000
Ar 1.485471e+00 0.000000e+00 0.000000e+00
1
Step 361000
Ar 1.452548e+00 0.000000e+00 0.000000e+00
1
Step 362000
Ar 1.455516e+00 0.000000e+00 0.000000e+00
1
Step 363000
Ar 1.456867e+00 0.000000e+00 0.000000e+00
1
Step 364000
Ar 1.454897e+00 0.000000e+00 0.000000e+00
1
Step 365000
Ar 1.462697e+00 0.000000e+00 0.000000e+00
1
Step 366000
Ar 1.316389e+00 0.000000e+00 0.000000e+00
1
Step 367000
Ar 1.307882e+00 0.000000e+00 0.000000e+00
1
Step 368000
Ar 1.309109e+00 0.000000e+00 0.000000e+00
1
Step 369000
Ar 1.307322e+00 0.000000e+00 0.000000e+00
1
Step 370000
Ar 1.304498e+00 0.000000e+00 0.000000e+00
1
Step 371000
Ar 1.266177e+00 0.000000e+00 0.000000e+00
1
Step 372000
Ar 1.259880e+00 0.000000e+00 0.000000e+00
1
Step 373000
Ar 1.264028e+00 0.000000e+00 0.000000e+00
1
Step 374000
Ar 1.263170e+00 0.000000e+00 0.000000e+00
1
Step 375000
Ar 1.266736e+00 0.000000e+00 0.000000e+00
1
Step 376000
Ar 1.114991e+00 0.000000e+00 0.000000e+00
1
Step 377000
Ar 1.110053e+00 0.000000e+00 0.000000e+00
1
Step 378000
Ar 1.108858e+00 0.000000e+00 0.000000e+00
1
Step 379000
Ar 1.119046e+00 0.000000e+00 0.000000e+00
1
Step 380000
Ar 1.109670e+00 0.000000e+00 0.000000e+00
1
Step 381000
Ar 1.064107e+00 0.000000e+00 0.000000e+00
1
Step 382000
Ar 1.064071e+00 0.000000e+00 0.000000e+00
1
Step 383000
Ar 1.073528e+00 0.000000e+00 0.000000e+00
1
Step 384000
Ar 1.069652e+00 0.000000e+00 0.000000e+00
1
Step 385000
Ar 1.067760e+00 0.000000e+00 0.000000e+00
1
Step 386000
Ar 1.097355e+00 0.000000e+00 0.000000e+00
1
Step 387000
Ar 1.097754e+00 0.000000e+00 0.000000e+00
1
Step 388000
Ar 1.098662e+00 0.000000e+00 0.000000e+00
1
Step 389000
Ar 1.097124e+00 0.000000e+00 0.000000e+00
1
Step 390000
Ar 1.096190e+00 0.000000e+00 0.000000e+00
1
Step 391000
Ar -8.254125e-01 0.000000e+00 0.000000e+00
1
Step 392000
Ar -7.247970e-01 0.000000e+00 0.000000e+00
1
Step 393000
Ar -7.979896e-01 0.000000e+00 0.000000e+00
1
Step 394000
Ar -7.943755e-01 0.000000e+00 0.000000e+00
1
Step 395000
Ar -8.203556e-01 0.000000e+00 0.000000e+00
1
Step 396000
Ar -7.690491e-01 0.000000e+00 0.000000e+00
1
Step 397000
Ar -7.990323e-01 0.000000e+00 0.000000e+00
1
Step 398000
Ar -7.885725e-01 0.000000e+00 0.000000e+00
1
Step 399000
Ar -7.789578e-01 0.000000e+00 0.000000e+00
1
Step 400000
Ar -7.497440e-01 0.000000e+00 0.000000e+00
1
Step 401000
Ar -7.230842e-01 0.000000e+00 0.000000e+00
1
Step 402000
Ar -7.257320e-01 0.000000e+00 0.000000e+00
1
Step 403000
Ar -7.294541e-01 0.000000e+00 0.000000e+00
1
Step 404000
Ar -7.291198e-01 0.000000e+00 0.000000e+00
1
Step 405000
Ar -7.261366e-01 0.000000e+00 0.000000e+00
1
Step 406000
Ar -8.874492e-01 0.000000e+00 0.000000e+00
1
Step 407000
Ar -8.629403e-01 0.000000e+00 0.000000e+00
1
Step 408000
Ar -8.612021e-01 0.000000e+00 0.000000e+00
1
Step 409000
Ar -8.613350e-01 0.000000e+00 0.000000e+00
1
Step 410000
Ar -8.621853e-01 0.000000e+00 0.000000e+00
1
Step 411000
Ar -9.943137e-01 0.000000e+00 0.000000e+00
1
Step 412000
Ar -9.810773e-01 0.000000e+00 0.000000e+00
1
Step 413000
Ar -9.930817e-01 0.000000e+00 0.000000e+00
1
Step 414000
Ar -1.018977e+00 0.000000e+00 0.000000e+00
1
Step 415000
Ar -1.033922e+00 0.000000e+00 0.000000e+00
1
Step 416000
Ar -1.013978e+00 0.000000e+00 0.000000e+00
1
Step 417000
Ar -1.000365e+00 0.000000e+00 0.000000e+00
1
Step 418000
Ar -9.919023e-01 0.000000e+00 0.000000e+00
1
Step 419000
Ar -1.001571e+00 0.000000e+00 0.000000e+00
1
Step 420000
Ar -9.880103e-01 0.000000e+00 0.000000e+00
1
Step 421000
Ar -1.015905e+00 0.000000e+00 0.000000e+00
1
Step 422000
Ar -1.015189e+00 0.000000e+00 0.000000e+00
1
Step 423000
Ar -1.012092e+00 0.000000e+00 0.000000e+00
1
Step 424000
Ar -1.010617e+00 0.000000e+00 0.000000e+00
1
Step 425000
Ar -1.016672e+00 0.000000e+00 0.000000e+00
1
Step 426000
Ar -1.005125e+00 0.000000e+00 0.000000e+00
1
Step 427000
Ar -1.005680e+00 0.000000e+00 0.000000e+00
1
Step 428000
Ar -9.985061e-01 0.000000e+00 0.000000e+00
1
Step 429000
Ar -1.004000e+00 0.000000e+00 0.000000e+00
1
Step 430000
Ar -1.004032e+00 0.000000e+00 0.000000e+00
1
Step 431000
Ar -8.726485e-01 0.000000e+00 0.000000e+00
1
Step 432000
Ar -8.846495e-01 0.000000e+00 0.000000e+00
1
Step 433000
Ar -8.870858e-01 0.000000e+00 0.000000e+00
1
Step 434000
Ar -8.772951e-01 0.000000e+00 0.000000e+00
1
Step 435000
Ar -8.822266e-01 0.000000e+00 0.000000e+00
1
Step 436000
Ar -7.896096e-01 0.000000e+00 0.000000e+00
1
Step 437000
Ar -8.083930e-01 0.000000e+00 0.000000e+00
1
Step 438000
Ar -7.670409e-01 0.000000e+00 0.000000e+00
1
Step 439000
Ar -7.699175e-01 0.000000e+00 0.000000e+00
1
Step 440000
Ar -7.980301e-01 0.000000e+00 0.000000e+00
1
Step 441000
Ar -7.892263e-01 0.000000e+00 0.000000e+00
1
Step 442000
Ar -7.705725e-01 0.000000e+00 0.000000e+00
1
Step 443000
Ar -7.808744e-01 0.000000e+00 0.000000e+00
1
Step 444000
Ar -7.812428e-01 0.000000e+00 0.000000e+00
1
Step 445000
Ar -7.789118e-01 0.000000e+00 0.000000e+00
1
Step 446000
Ar -6.810698e-01 0.000000e+00 0.000000e+00
1
Step 447000
Ar -6.771305e-01 0.000000e+00 0.000000e+00
1
Step 448000
Ar -6.752872e-01 0.000000e+00 0.000000e+00
1
Step 449000
Ar -6.811692e-01 0.000000e+00 0.000000e+00
1
Step 450000
Ar -6.750218e-01 0.000000e+00 0.000000e+00
1
Step 451000
Ar -6.902478e-01 0.000000e+00 0.000000e+00
1
Step 452000
Ar -6.840250e-01 0.000000e+00 0.000000e+00
1
Step 453000
Ar -6.839960e-01 0.000000e+00 0.000000e+00
1
Step 454000
Ar -6.880409e-01 0.000000e+00 0.000000e+00
1
Step 455000
Ar -6.870442e-01 0.000000e+00 0.000000e+00
1
Step 456000
Ar -6.057097e-01 0.000000e+00 0.000000e+00
1
Step 457000
Ar -5.670478e-01 0.000000e+00 0.000000e+00
1
Step 458000
Ar -6.166285e-01 0.000000e+00 0.000000e+00
1
Step 459000
Ar -5.732313e-01 0.000000e+00 0.000000e+00
1
Step 460000
Ar -5.952649e-01 0.000000e+00 0.000000e+00
1
Step 461000
Ar -6.121215e-01 0.000000e+00 0.000000e+00
1
Step 462000
Ar -6.132351e-01 0.000000e+00 0.000000e+00
1
Step 463000
Ar -6.179522e-01 0.000000e+00 0.000000e+00
1
Step 464000
Ar -6.113993e-01 0.000000e+00 0.000000e+00
1
Step 465000
Ar -6.161172e-01 0.000000e+00 0.000000e+00
1
Step 466000
Ar -6.463903e-01 0.000000e+00 0.000000e+00
1
Step 467000
Ar -6.408140e-01 0.000000e+00 0.000000e+00
1
Step 468000
Ar -6.395727e-01 0.000000e+00 0.000000e+00
1
Step 469000
Ar -6.442074e-01 0.000000e+00 0.000000e+00
1
Step 470000
Ar -6.404172e-01 0.000000e+00 0.000000e+00
1
Step 471000
Ar 5.356816e-01 0.000000e+00 0.000000e+00
1
Step 472000
Ar 5.362836e-01 0.000000e+00 0.000000e+00
1
Step 473000
Ar 5.082347e-01 0.000000e+00 0.000000e+00
1
Step 474000
Ar 5.541760e-01 0.000000e+00 0.000000e+00
1
Step 475000
Ar 5.438999e-01 0.000000e+00 0.000000e+00
1
Step 476000
Ar 4.997120e-01 0.000000e+00 0.000000e+00
1
Step 477000
Ar 4.309620e-01 0.000000e+00 0.000000e+00
1
Step 478000
Ar 4.067771e-01 0.000000e+00 0.000000e+00
1
Step 479000
Ar 4.606653e-01 0.000000e+00 0.000000e+00
1
Step 480000
Ar 4.638238e-01 0.000000e+00 0.000000e+00
1
Step 481000
Ar 6.750051e-01 0.000000e+00 0.000000e+00
1
Step 482000
Ar 6.525161e-01 0.000000e+00 0.000000e+00
1
Step 483000
Ar 6.522201e-01 0.000000e+00 0.000000e+00
1
Step 484000
Ar 6.479199e-01 0.000000e+00 0.000000e+00
1
Step 485000
Ar 6.509627e-01 0.000000e+00 0.000000e+00
1
Step 486000
Ar 6.217505e-01 0.000000e+00 0.000000e+00
1
Step 487000
Ar 6.246457e-01 0.000000e+00 0.000000e+00
1
Step 488000
Ar 6.200525e-01 0.000000e+00 0.000000e+00
1
Step 489000
Ar 6.198490e-01 0.000000e+00 0.000000e+00
1
Step 490000
Ar 6.211953e-01 0.000000e+00 0.000000e+00
1
Step 491000
Ar 1.171692e+00 0.000000e+00 0.000000e+00
1
Step 492000
Ar 1.176109e+00 0.000000e+00 0.000000e+00
1
Step 493000
Ar 1.177578e+00 0.000000e+00 0.000000e+00
1
Step 494000
Ar 1.184080e+00 0.000000e+00 0.000000e+00
1
Step 495000
Ar 1.170682e+00 0.000000e+00 0.000000e+00
1
Step 496000
Ar 1.164125e+00 0.000000e+00 0.000000e+00
1
Step 497000
Ar 1.180931e+00 0.000000e+00 0.000000e+00
1
Step 498000
Ar 1.182872e+00 0.000000e+00 0.000000e+00
1
Step 499000
Ar 1.185475e+00 0.000000e+00 0.000000e+00
1
Step 500000
Ar 1.187362e+00 0.000000e+00 0.000000e+00
1
Step 501000
Ar 9.692465e-01 0.000000e+00 0.000000e+00
1
Step 502000
Ar 9.772131e-01 0.000000e+00 0.000000e+00
1
Step 503000
Ar 9.539392e-01 0.000000e+00 0.000000e+00
1
Step 504000
Ar 9.796029e-01 0.000000e+00 0.000000e+00
1
Step 505000
Ar 9.701348e-01 0.000000e+00 0.000000e+00
1
Step 506000
Ar 9.849067e-01 0.000000e+00 0.000000e+00
1
Step 507000
Ar 9.840893e-01 0.000000e+00 0.000000e+00
1
Step 508000
Ar 9.834340e-01 0.000000e+00 0.000000e+00
1
Step 509000
Ar 9.768853e-01 0.000000e+00 0.000000e+00
1
Step 510000
Ar 9.772220e-01 0.000000e+00 0.000000e+00
1
Step 511000
Ar 1.451284e+00 0.000000e+00 0.000000e+00
1
Step 512000
Ar 1.450594e+00 0.000000e+00 0.000000e+00
1
Step 513000
Ar 1.449582e+00 0.000000e+00 0.000000e+00
1
Step 514000
Ar 1.445685e+00 0.000000e+00 0.000000e+00
1
Step 515000
Ar 1.450180e+00 0.000000e+00 0.000000e+00
1
Step 516000
Ar 9.547134e-01 0.000000e+00 0.000000e+00
1
Step 517000
Ar 9.546788e-01 0.000000e+00 0.000000e+00
1
Step 518000
Ar 9.614561e-01 0.000000e+00 0.000000e+00
1
Step 519000
Ar 9.517910e-01 0.000000e+00 0.000000e+00
1
Step 520000
Ar 9.523862e-01 0.000000e+00 0.000000e+00
1
Step 521000
Ar 9.110196e-01 0.000000e+00 0.000000e+00
1
Step 522000
Ar 9.162914e-01 0.000000e+00 0.000000e+00
1
Step 523000
Ar 9.077218e-01 0.000000e+00 0.000000e+00
1
Step 524000
Ar 9.087335e-01 0.000000e+00 0.000000e+00
1
Step 525000
Ar 9.089499e-01 0.000000e+00 0.000000e+00
1
Step 526000
Ar 8.543893e-01 0.000000e+00 0.000000e+00
1
Step 527000
Ar 8.575947e-01 0.000000e+00 0.000000e+00
1
Step 528000
Ar 8.538962e-01 0.000000e+00 0.000000e+00
1
Step 529000
Ar 8.561759e-01 0.000000e+00 0.000000e+00
1
Step 530000
Ar 8.595885e-01 0.000000e+00 0.000000e+00
1
Step 531000
Ar 1.515243e+00 0.000000e+00 0.000000e+00
1
Step 532000
Ar 1.531690e+00 0.000000e+00 0.000000e+00
1
Step 533000
Ar 1.500451e+00 0.000000e+00 0.000000e+00
1
Step 534000
Ar 1.511810e+00 0.000000e+00 0.000000e+00
1
Step 535000
Ar 1.501275e+00 0.000000e+00 0.000000e+00
1
Step 536000
Ar 1.366419e+00 0.000000e+00 0.000000e+00
1
Step 537000
Ar 1.371664e+00 0.000000e+00 0.000000e+00
1
Step 538000
Ar 1.357025e+00 0.000000e+00 0.000000e+00
1
Step 539000
Ar 1.362081e+00 0.000000e+00 0.000000e+00
1
Step 540000
Ar 1.349022e+00 0.000000e+00 0.000000e+00
1
Step 541000
Ar 7.802647e-01 0.000000e+00 0.000000e+00
1
Step 542000
Ar 7.461116e-01 0.000000e+00 0.000000e+00
1
Step 543000
Ar 7.466823e-01 0.000000e+00 0.000000e+00
1
Step 544000
Ar 9.643689e-01 0.000000e+00 0.000000e+00
1
Step 545000
Ar 1.144157e+00 0.000000e+00 0.000000e+00
1
Step 546000
Ar 1.118165e+00 0.000000e+00 0.000000e+00
1
Step 547000
Ar 1.118141e+00 0.000000e+00 0.000000e+00
1
Step 548000
Ar 1.121356e+00 0.000000e+00 0.000000e+00
1
Step 549000
Ar 1.117565e+00 0.000000e+00 0.000000e+00
1
Step 550000
Ar 1.120330e+00 0.000000e+00 0.000000e+00
1
Step 551000
Ar 1.007134e+00 0.000000e+00 0.000000e+00
1
Step 552000
Ar 1.009264e+00 0.000000e+00 0.000000e+00
1
Step 553000
Ar 1.009801e+00 0.000000e+00 0.000000e+00
1
Step 554000
Ar 1.012561e+00 0.000000e+00 0.000000e+00
1
Step 555000
Ar -1.310830e+00 0.000000e+00 0.000000e+00
1
Step 556000
Ar -1.343283e+00 0.000000e+00 0.000000e+00
1
Step 557000
Ar -1.371833e+00 0.000000e+00 0.000000e+00
1
Step 558000
Ar -1.351126e+00 0.000000e+00 0.000000e+00
1
Step 559000
Ar -1.328889e+00 0.000000e+00 0.000000e+00
1
Step 560000
Ar -1.338354e+00 0.000000e+00 0.000000e+00
1
Step 561000
Ar -1.102516e+00 0.000000e+00 0.000000e+00
1
Step 562000
Ar -1.060917e+00 0.000000e+00 0.000000e+00
1
Step 563000
Ar -1.068525e+00 0.000000e+00 0.000000e+00
1
Step 564000
Ar -1.079891e+00 0.000000e+00 0.000000e+00
1
Step 565000
Ar -1.189329e+00 0.000000e+00 0.000000e+00
1
Step 566000
Ar -1.225508e+00 0.000000e+00 0.000000e+00
1
Step 567000
Ar -1.274675e+00 0.000000e+00 0.000000e+00
1
Step 568000
Ar -1.257397e+00 0.000000e+00 0.000000e+00
1
Step 569000
Ar -1.224513e+00 0.000000e+00 0.000000e+00
1
Step 570000
Ar -1.196185e+00 0.000000e+00 0.000000e+00
1
Step 571000
Ar -1.206273e+00 0.000000e+00 0.000000e+00
1
Step 572000
Ar -1.252714e+00 0.000000e+00 0.000000e+00
1
Step 573000
Ar -1.215776e+00 0.000000e+00 0.000000e+00
1
Step 574000
Ar -1.209838e+00 0.000000e+00 0.000000e+00
1
Step 575000
Ar -1.255831e+00 0.000000e+00 0.000000e+00
1
Step 576000
Ar -1.274594e+00 0.000000e+00 0.000000e+00
1
Step 577000
Ar -1.282033e+00 0.000000e+00 0.000000e+00
1
Step 578000
Ar -1.284555e+00 0.000000e+00 0.000000e+00
1
Step 579000
Ar -1.270814e+00 0.000000e+00 0.000000e+00
1
Step 580000
Ar -1.271757e+00 0.000000e+00 0.000000e+00
1
Step 581000
Ar -1.285112e+00 0.000000e+00 0.000000e+00
1
Step 582000
Ar -1.287786e+00 0.000000e+00 0.000000e+00
1
Step 583000
Ar -1.293866e+00 0.000000e+00 0.000000e+00
1
Step 584000
Ar -1.299264e+00 0.000000e+00 0.000000e+00
1
Step 585000
Ar -1.283630e+00 0.000000e+00 0.000000e+00
1
Step 586000
Ar -1.239947e+00 0.000000e+00 0.000000e+00
1
Step 587000
Ar -1.237049e+00 0.000000e+00 0.000000e+00
1
Step 588000
Ar -1.237473e+00 0.000000e+00 0.000000e+00
1
Step 589000
Ar -1.218459e+00 0.000000e+00 0.000000e+00
1
Step 590000
Ar -1.226718e+00 0.000000e+00 0.000000e+00
1
Step 591000
Ar -1.237519e+00 0.000000e+00 0.000000e+00
1
Step 592000
Ar -1.240018e+00 0.000000e+00 0.000000e+00
1
Step 593000
Ar -1.245320e+00 0.000000e+00 0.000000e+00
1
Step 594000
Ar -1.240772e+00 0.000000e+00 0.000000e+00
1
Step 595000
Ar -1.238937e+00 0.000000e+00 0.000000e+00
1
Step 596000
Ar -1.373006e+00 0.000000e+00 0.000000e+00
1
Step 597000
Ar -1.356710e+00 0.000000e+00 0.000000e+00
1
Step 598000
Ar -1.376492e+00 0.000000e+00 0.000000e+00
1
Step 599000
Ar -1.356755e+00 0.000000e+00 0.000000e+00
1
Step 600000
Ar -1.377340e+00 0.000000e+00 0.000000e+00
1
Step 601000
Ar -7.171997e-01 0.000000e+00 0.000000e+00
1
Step 602000
Ar -7.183874e-01 0.000000e+00 0.000000e+00
1
Step 603000
Ar -7.140281e-01 0.000000e+00 0.000000e+00
1
Step 604000
Ar -7.150119e-01 0.000000e+00 0.000000e+00
1
Step 605000
Ar -7.652971e-01 0.000000e+00 0.000000e+00
1
Step 606000
Ar -1.212110e+00 0.000000e+00 0.000000e+00
1
Step 607000
Ar -1.213979e+00 0.000000e+00 0.000000e+00
1
Step 608000
Ar -1.207104e+00 0.000000e+00 0.000000e+00
1
Step 609000
Ar -1.210477e+00 0.000000e+00 0.000000e+00
1
Step 610000
Ar -1.207523e+00 0.000000e+00 0.000000e+00
1
Step 611000
Ar -1.216214e+00 0.000000e+00 0.000000e+00
1
Step 612000
Ar -1.218051e+00 0.000000e+00 0.000000e+00
1
Step 613000
Ar -1.409238e+00 0.000000e+00 0.000000e+00
1
Step 614000
Ar -1.417433e+00 0.000000e+00 0.000000e+00
1
Step 615000
Ar -1.387985e+00 0.000000e+00 0.000000e+00
1
Step 616000
Ar -1.403142e+00 0.000000e+00 0.000000e+00
1
Step 617000
Ar -1.455415e+00 0.000000e+00 0.000000e+00
1
Step 618000
Ar -1.408106e+00 0.000000e+00 0.000000e+00
1
Step 619000
Ar -1.398553e+00 0.000000e+00 0.000000e+00
1
Step 620000
Ar -1.404385e+00 0.000000e+00 0.000000e+00
1
Step 621000
Ar -1.419333e+00 0.000000e+00 0.000000e+00
1
Step 622000
Ar -1.424183e+00 0.000000e+00 0.000000e+00
1
Step 623000
Ar -1.423592e+00 0.000000e+00 0.000000e+00
1
Step 624000
Ar -1.424060e+00 0.000000e+00 0.000000e+00
1
Step 625000
Ar -1.423226e+00 0.000000e+00 0.000000e+00
1
Step 626000
Ar -1.438852e+00 0.000000e+00 0.000000e+00
1
Step 627000
Ar -1.442017e+00 0.000000e+00 0.000000e+00
1
Step 628000
Ar -1.440208e+00 0.000000e+00 0.000000e+00
1
Step 629000
Ar -1.429249e+00 0.000000e+00 0.000000e+00
1
Step 630000
Ar -1.466573e+00 0.000000e+00 0.000000e+00
1
Step 631000
Ar -1.480526e+00 0.000000e+00 0.000000e+00
1
Step 632000
Ar -1.487409e+00 0.000000e+00 0.000000e+00
1
Step 633000
Ar -1.486953e+00 0.000000e+00 0.000000e+00
1
Step 634000
Ar -1.482880e+00 0.000000e+00 0.000000e+00
1
Step 635000
Ar -1.497882e+00 0.000000e+00 0.000000e+00
1
Step 636000
Ar -9.301792e-01 0.000000e+00 0.000000e+00
1
Step 637000
Ar -9.328922e-01 0.000000e+00 0.000000e+00
1
Step 638000
Ar -9.382258e-01 0.000000e+00 0.000000e+00
1
Step 639000
Ar -9.454314e-01 0.000000e+00 0.000000e+00
1
Step 640000
Ar -9.505107e-01 0.000000e+00 0.000000e+00
1
Step 641000
Ar -9.375658e-01 0.000000e+00 0.000000e+00
1
Step 642000
Ar -9.140894e-01 0.000000e+00 0.000000e+00
1
Step 643000
Ar -9.296864e-01 0.000000e+00 0.000000e+00
1
Step 644000
Ar -9.346301e-01 0.000000e+00 0.000000e+00
1
Step 645000
Ar -9.231563e-01 0.000000e+00 0.000000e+00
1
Step 646000
Ar -9.091628e-01 0.000000e+00 0.000000e+00
1
Step 647000
Ar -9.100422e-01 0.000000e+00 0.000000e+00
1
Step 648000
Ar -9.099104e-01 0.000000e+00 0.000000e+00
1
Step 649000
Ar -9.116892e-01 0.000000e+00 0.000000e+00
1
Step 650000
Ar -9.106499e-01 0.000000e+00 0.000000e+00
1
Step 651000