1
Step 120000
Ar 1.134915e+00 0.000000e+00 0.000000e+00
1
Step 121000
Ar 9.843001e-01 0.000000e+00 0.000000e+00
1
Step 122000
Ar 7.981220e-01 0.000000e+00 0.000000e+00
1
Step 123000
Ar 7.050325e-01 0.000000e+00 0.000000e+00
1
Step 124000
Ar 7.518891e-01 0.000000e+00 0.000000e+00
1
Step 125000
Ar 1.124737e+00 0.000000e+00 0.000000e+00
1
Step 126000
Ar 1.163855e+00 0.000000e+00 0.000000e+00
1
Step 127000
Ar 1.228346e+00 0.000000e+00 0.000000e+00
1
Step 128000
Ar 1.140771e+00 0.000000e+00 0.000000e+00
1
Step 129000
Ar 1.157669e+00 0.000000e+00 0.000000e+00
1
Step 130000
Ar 1.274174e+00 0.000000e+00 0.000000e+00
1
Step 131000
Ar 1.215387e+00 0.000000e+00 0.000000e+00
1
Step 132000
Ar 1.278670e+00 0.000000e+00 0.000000e+00
1
Step 133000
Ar 1.198913e+00 0.000000e+00 0.000000e+00
1
Step 134000
Ar 1.254691e+00 0.000000e+00 0.000000e+00
1
Step 135000
Ar 1.251320e+00 0.000000e+00 0.000000e+00
1
Step 136000
Ar 1.317593e+00 0.000000e+00 0.000000e+00
1
Step 137000
Ar 1.226094e+00 0.000000e+00 0.000000e+00
1
Step 138000
Ar 1.236600e+00 0.000000e+00 0.000000e+00
1
Step 139000
Ar 1.290987e+00 0.000000e+00 0.000000e+00
1
Step 140000
Ar 1.296375e+00 0.000000e+00 0.000000e+00
1
Step 141000
Ar 1.300274e+00 0.000000e+00 0.000000e+00
1
Step 142000
Ar 1.154835e+00 0.000000e+00 0.000000e+00
1
Step 143000
Ar 1.170024e+00 0.000000e+00 0.000000e+00
1
Step 144000
Ar 9.395314e-01 0.000000e+00 0.000000e+00
1
Step 145000
Ar 1.029260e+00 0.000000e+00 0.000000e+00
1
Step 146000
Ar 9.912641e-01 0.000000e+00 0.000000e+00
1
Step 147000
Ar 9.541790e-01 0.000000e+00 0.000000e+00
1
Step 148000
Ar 8.257896e-01 0.000000e+00 0.000000e+00
1
Step 149000
Ar 8.079727e-01 0.000000e+00 0.000000e+00
1
Step 150000
Ar 8.293097e-01 0.000000e+00 0.000000e+00
1
Step 151000
Ar 8.816007e-01 0.000000e+00 0.000000e+00
1
Step 152000
Ar 1.016861e+00 0.000000e+00 0.000000e+00
1
Step 153000
Ar 1.031941e+00 0.000000e+00 0.000000e+00
1
Step 154000
Ar 8.310365e-01 0.000000e+00 0.000000e+00
1
Step 155000
Ar 7.629123e-01 0.000000e+00 0.000000e+00
1
Step 156000
Ar 7.954480e-01 0.000000e+00 0.000000e+00
1
Step 157000
Ar 7.297584e-01 0.000000e+00 0.000000e+00
1
Step 158000
Ar 7.293150e-01 0.000000e+00 0.000000e+00
1
Step 159000
Ar 7.278781e-01 0.000000e+00 0.000000e+00
1
Step 160000
Ar 7.266382e-01 0.000000e+00 0.000000e+00
1
Step 161000
Ar 7.291864e-01 0.000000e+00 0.000000e+00
1
Step 162000
Ar 7.304972e-01 0.000000e+00 0.000000e+00
1
Step 163000
Ar 3.272202e-01 0.000000e+00 0.000000e+00
1
Step 164000
Ar 6.612805e-01 0.000000e+00 0.000000e+00
1
Step 165000
Ar 6.842048e-01 0.000000e+00 0.000000e+00
1
Step 166000
Ar 6.665328e-01 0.000000e+00 0.000000e+00
1
Step 167000
Ar 5.780777e-01 0.000000e+00 0.000000e+00
1
Step 168000
Ar 5.324079e-01 0.000000e+00 0.000000e+00
1
Step 169000
Ar 6.105375e-01 0.000000e+00 0.000000e+00
1
Step 170000
Ar 1.985098e-01 0.000000e+00 0.000000e+00
1
Step 171000
Ar 5.792211e-01 0.000000e+00 0.000000e+00
1
Step 172000
Ar 5.552934e-01 0.000000e+00 0.000000e+00
1
Step 173000
Ar 4.117255e-01 0.000000e+00 0.000000e+00
1
Step 174000
Ar 5.804402e-01 0.000000e+00 0.000000e+00
1
Step 175000
Ar 6.614944e-01 0.000000e+00 0.000000e+00
1
Step 176000
Ar 6.919645e-01 0.000000e+00 0.000000e+00
1
Step 177000
Ar 7.001199e-01 0.000000e+00 0.000000e+00
1
Step 178000
Ar 6.611040e-01 0.000000e+00 0.000000e+00
1
Step 179000
Ar 6.880122e-01 0.000000e+00 0.000000e+00
1
Step 180000
Ar 6.868173e-01 0.000000e+00 0.000000e+00
1
Step 181000
Ar 6.857413e-01 0.000000e+00 0.000000e+00
1
Step 182000
Ar 6.854010e-01 0.000000e+00 0.000000e+00
1
Step 183000
Ar 6.555887e-01 0.000000e+00 0.000000e+00
1
Step 184000
Ar 6.825230e-01 0.000000e+00 0.000000e+00
1
Step 185000
Ar 6.719311e-01 0.000000e+00 0.000000e+00
1
Step 186000
Ar 6.807416e-01 0.000000e+00 0.000000e+00
1
Step 187000
Ar 6.923568e-01 0.000000e+00 0.000000e+00
1
Step 188000
Ar 6.433311e-01 0.000000e+00 0.000000e+00
1
Step 189000
Ar 6.427775e-01 0.000000e+00 0.000000e+00
1
Step 190000
Ar 6.834533e-01 0.000000e+00 0.000000e+00
1
Step 191000
Ar 6.895847e-01 0.000000e+00 0.000000e+00
1
Step 192000
Ar 6.843288e-01 0.000000e+00 0.000000e+00
1
Step 193000
Ar 6.920271e-01 0.000000e+00 0.000000e+00
1
Step 194000
Ar 6.951292e-01 0.000000e+00 0.000000e+00
1
Step 195000
Ar 5.294448e-01 0.000000e+00 0.000000e+00
1
Step 196000
Ar 4.049762e-01 0.000000e+00 0.000000e+00
1
Step 197000
Ar 5.315991e-01 0.000000e+00 0.000000e+00
1
Step 198000
Ar 5.333692e-01 0.000000e+00 0.000000e+00
1
Step 199000
Ar 5.487006e-01 0.000000e+00 0.000000e+00
1
Step 200000
Ar 5.793855e-01 0.000000e+00 0.000000e+00
1
Step 201000
Ar 5.751581e-01 0.000000e+00 0.000000e+00
1
Step 202000
Ar 5.760299e-01 0.000000e+00 0.000000e+00
1
Step 203000
Ar 5.843272e-01 0.000000e+00 0.000000e+00
1
Step 204000
Ar 1.042163e+00 0.000000e+00 0.000000e+00
1
Step 205000
Ar 1.054078e+00 0.000000e+00 0.000000e+00
1
Step 206000
Ar 9.803053e-01 0.000000e+00 0.000000e+00
1
Step 207000
Ar 1.012580e+00 0.000000e+00 0.000000e+00
1
Step 208000
Ar 9.776918e-01 0.000000e+00 0.000000e+00
1
Step 209000
Ar 1.055132e+00 0.000000e+00 0.000000e+00
1
Step 210000
Ar 9.882108e-01 0.000000e+00 0.000000e+00
1
Step 211000
Ar 1.055370e+00 0.000000e+00 0.000000e+00
1
Step 212000
Ar 1.030715e+00 0.000000e+00 0.000000e+00
1
Step 213000
Ar 1.080535e+00 0.000000e+00 0.000000e+00
1
Step 214000
Ar 1.062145e+00 0.000000e+00 0.000000e+00
1
Step 215000
Ar 9.566409e-01 0.000000e+00 0.000000e+00
1
Step 216000
Ar 1.018662e+00 0.000000e+00 0.000000e+00
1
Step 217000
Ar 9.125566e-01 0.000000e+00 0.000000e+00
1
Step 218000
Ar 9.251525e-01 0.000000e+00 0.000000e+00
1
Step 219000
Ar 9.178559e-01 0.000000e+00 0.000000e+00
1
Step 220000
Ar 9.015882e-01 0.000000e+00 0.000000e+00
1
Step 221000
Ar 9.055728e-01 0.000000e+00 0.000000e+00
1
Step 222000
Ar 9.009760e-01 0.000000e+00 0.000000e+00
1
Step 223000
Ar 9.156856e-01 0.000000e+00 0.000000e+00
1
Step 224000
Ar 9.116570e-01 0.000000e+00 0.000000e+00
1
Step 225000
Ar 9.150373e-01 0.000000e+00 0.000000e+00
1
Step 226000
Ar 9.169150e-01 0.000000e+00 0.000000e+00
1
Step 227000
Ar 9.116274e-01 0.000000e+00 0.000000e+00
1
Step 228000
Ar 9.147798e-01 0.000000e+00 0.000000e+00
1
Step 229000
Ar 9.146994e-01 0.000000e+00 0.000000e+00
1
Step 230000
Ar 9.114998e-01 0.000000e+00 0.000000e+00
1
Step 231000
Ar 9.171116e-01 0.000000e+00 0.000000e+00
1
Step 232000
Ar 9.142875e-01 0.000000e+00 0.000000e+00
1
Step 233000
Ar 9.110975e-01 0.000000e+00 0.000000e+00
1
Step 234000
Ar 9.131881e-01 0.000000e+00 0.000000e+00
1
Step 235000
Ar 9.146854e-01 0.000000e+00 0.000000e+00
1
Step 236000
Ar 9.143822e-01 0.000000e+00 0.000000e+00
1
Step 237000
Ar 9.203391e-01 0.000000e+00 0.000000e+00
1
Step 238000
Ar 9.180047e-01 0.000000e+00 0.000000e+00
1
Step 239000
Ar 9.152866e-01 0.000000e+00 0.000000e+00
1
Step 240000
Ar 9.179766e-01 0.000000e+00 0.000000e+00
1
Step 241000
Ar 9.186722e-01 0.000000e+00 0.000000e+00
1
Step 242000
Ar 9.134991e-01 0.000000e+00 0.000000e+00
1
Step 243000
Ar 9.163178e-01 0.000000e+00 0.000000e+00
1
Step 244000
Ar 9.160694e-01 0.000000e+00 0.000000e+00
1
Step 245000
Ar 9.113883e-01 0.000000e+00 0.000000e+00
1
Step 246000
Ar 7.966903e-01 0.000000e+00 0.000000e+00
1
Step 247000
Ar 7.725627e-01 0.000000e+00 0.000000e+00
1
Step 248000
Ar 8.003438e-01 0.000000e+00 0.000000e+00
1
Step 249000
Ar 8.198359e-01 0.000000e+00 0.000000e+00
1
Step 250000
Ar 8.293873e-01 0.000000e+00 0.000000e+00
1
Step 251000
Ar 8.035023e-01 0.000000e+00 0.000000e+00
1
Step 252000
Ar 7.836493e-01 0.000000e+00 0.000000e+00
1
Step 253000
Ar 7.925445e-01 0.000000e+00 0.000000e+00
1
Step 254000
Ar 7.952995e-01 0.000000e+00 0.000000e+00
1
Step 255000
Ar 7.704152e-01 0.000000e+00 0.000000e+00
1
Step 256000
Ar 7.711360e-01 0.000000e+00 0.000000e+00
1
Step 257000
Ar 7.908292e-01 0.000000e+00 0.000000e+00
1
Step 258000
Ar 7.988397e-01 0.000000e+00 0.000000e+00
1
Step 259000
Ar 8.293046e-01 0.000000e+00 0.000000e+00
1
Step 260000
Ar 8.262119e-01 0.000000e+00 0.000000e+00
1
Step 261000
Ar 8.769118e-01 0.000000e+00 0.000000e+00
1
Step 262000
Ar 8.710623e-01 0.000000e+00 0.000000e+00
1
Step 263000
Ar 8.638364e-01 0.000000e+00 0.000000e+00
1
Step 264000
Ar 6.852194e-01 0.000000e+00 0.000000e+00
1
Step 265000
Ar -1.044348e+00 0.000000e+00 0.000000e+00
1
Step 266000
Ar -9.472885e-01 0.000000e+00 0.000000e+00
1
Step 267000
Ar -1.058298e+00 0.000000e+00 0.000000e+00
1
Step 268000
Ar -9.701599e-01 0.000000e+00 0.000000e+00
1
Step 269000
Ar -1.076816e+00 0.000000e+00 0.000000e+00
1
Step 270000
Ar -1.048277e+00 0.000000e+00 0.000000e+00
1
Step 271000
Ar -1.068322e+00 0.000000e+00 0.000000e+00
1
Step 272000
Ar -1.178339e+00 0.000000e+00 0.000000e+00
1
Step 273000
Ar -1.179327e+00 0.000000e+00 0.000000e+00
1
Step 274000
Ar -1.226033e+00 0.000000e+00 0.000000e+00
1
Step 275000
Ar -1.241315e+00 0.000000e+00 0.000000e+00
1
Step 276000
Ar -1.171418e+00 0.000000e+00 0.000000e+00
1
Step 277000
Ar -1.087019e+00 0.000000e+00 0.000000e+00
1
Step 278000
Ar -9.813070e-01 0.000000e+00 0.000000e+00
1
Step 279000
Ar -1.006690e+00 0.000000e+00 0.000000e+00
1
Step 280000
Ar -1.074843e+00 0.000000e+00 0.000000e+00
1
Step 281000
Ar -9.833421e-01 0.000000e+00 0.000000e+00
1
Step 282000
Ar -9.703442e-01 0.000000e+00 0.000000e+00
1
Step 283000
Ar -1.035782e+00 0.000000e+00 0.000000e+00
1
Step 284000
Ar -9.973894e-01 0.000000e+00 0.000000e+00
1
Step 285000
Ar -1.057369e+00 0.000000e+00 0.000000e+00
1
Step 286000
Ar -1.233272e+00 0.000000e+00 0.000000e+00
1
Step 287000
Ar -1.188298e+00 0.000000e+00 0.000000e+00
1
Step 288000
Ar -1.177399e+00 0.000000e+00 0.000000e+00
1
Step 289000
Ar -1.188040e+00 0.000000e+00 0.000000e+00
1
Step 290000
Ar -1.207831e+00 0.000000e+00 0.000000e+00
1
Step 291000
Ar -1.187334e+00 0.000000e+00 0.000000e+00
1
Step 292000
Ar -1.072438e+00 0.000000e+00 0.000000e+00
1
Step 293000
Ar -1.090030e+00 0.000000e+00 0.000000e+00
1
Step 294000
Ar -1.042070e+00 0.000000e+00 0.000000e+00
1
Step 295000
Ar -1.015563e+00 0.000000e+00 0.000000e+00
1
Step 296000
Ar -1.016188e+00 0.000000e+00 0.000000e+00
1
Step 297000
Ar -1.093043e+00 0.000000e+00 0.000000e+00
1
Step 298000
Ar -1.038478e+00 0.000000e+00 0.000000e+00
1
Step 299000
Ar -1.063162e+00 0.000000e+00 0.000000e+00
1
Step 300000
Ar -9.530989e-01 0.000000e+00 0.000000e+00
1
Step 301000
Ar -1.103834e+00 0.000000e+00 0.000000e+00
1
Step 302000
Ar -1.063836e+00 0.000000e+00 0.000000e+00
1
Step 303000
Ar -1.085570e+00 0.000000e+00 0.000000e+00
1
Step 304000
Ar -1.081290e+00 0.000000e+00 0.000000e+00
1
Step 305000
Ar -1.116324e+00 0.000000e+00 0.000000e+00
1
Step 306000
Ar -1.113042e+00 0.000000e+00 0.000000e+00
1
Step 307000
Ar -1.037592e+00 0.000000e+00 0.000000e+00
1
Step 308000
Ar -8.713797e-01 0.000000e+00 0.000000e+00
1
Step 309000
Ar -9.054060e-01 0.000000e+00 0.000000e+00
1
Step 310000
Ar -8.638383e-01 0.000000e+00 0.000000e+00
1
Step 311000
Ar -9.133044e-01 0.000000e+00 0.000000e+00
1
Step 312000
Ar -7.401509e-01 0.000000e+00 0.000000e+00
1
Step 313000
Ar -8.599131e-01 0.000000e+00 0.000000e+00
1
Step 314000
Ar -8.280430e-01 0.000000e+00 0.000000e+00
1
Step 315000
Ar -5.596287e-01 0.000000e+00 0.000000e+00
1
Step 316000
Ar -8.700465e-01 0.000000e+00 0.000000e+00
1
Step 317000
Ar -8.849453e-01 0.000000e+00 0.000000e+00
1
Step 318000
Ar -9.195300e-01 0.000000e+00 0.000000e+00
1
Step 319000
Ar -9.132755e-01 0.000000e+00 0.000000e+00
1
Step 320000
Ar -9.190690e-01 0.000000e+00 0.000000e+00
1
Step 321000
Ar -1.025760e+00 0.000000e+00 0.000000e+00
1
Step 322000
Ar -1.027612e+00 0.000000e+00 0.000000e+00
1
Step 323000
Ar -1.026825e+00 0.000000e+00 0.000000e+00
1
Step 324000
Ar -1.027054e+00 0.000000e+00 0.000000e+00
1
Step 325000
Ar -1.022425e+00 0.000000e+00 0.000000e+00
1
Step 326000
Ar -1.027140e+00 0.000000e+00 0.000000e+00
1
Step 327000
Ar -1.025536e+00 0.000000e+00 0.000000e+00
1
Step 328000
Ar -1.022072e+00 0.000000e+00 0.000000e+00
1
Step 329000
Ar -1.092968e+00 0.000000e+00 0.000000e+00
1
Step 330000
Ar -1.091202e+00 0.000000e+00 0.000000e+00
1
Step 331000
Ar -1.016746e+00 0.000000e+00 0.000000e+00
1
Step 332000
Ar -1.016238e+00 0.000000e+00 0.000000e+00
1
Step 333000
Ar -1.019768e+00 0.000000e+00 0.000000e+00
1
Step 334000
Ar -1.019563e+00 0.000000e+00 0.000000e+00
1
Step 335000
Ar -1.018254e+00 0.000000e+00 0.000000e+00
1
Step 336000
Ar -1.020103e+00 0.000000e+00 0.000000e+00
1
Step 337000
Ar -9.926567e-01 0.000000e+00 0.000000e+00
1
Step 338000
Ar -9.938913e-01 0.000000e+00 0.000000e+00
1
Step 339000
Ar -9.988515e-01 0.000000e+00 0.000000e+00
1
Step 340000
Ar -9.952323e-01 0.000000e+00 0.000000e+00
1
Step 341000
Ar -9.938198e-01 0.000000e+00 0.000000e+00
1
Step 342000
Ar -9.903011e-01 0.000000e+00 0.000000e+00
1
Step 343000
Ar -9.897235e-01 0.000000e+00 0.000000e+00
1
Step 344000
Ar -9.958107e-01 0.000000e+00 0.000000e+00
1
Step 345000
Ar -9.895944e-01 0.000000e+00 0.000000e+00
1
Step 346000
Ar -9.859218e-01 0.000000e+00 0.000000e+00
1
Step 347000
Ar -9.931099e-01 0.000000e+00 0.000000e+00
1
Step 348000
Ar -9.980279e-01 0.000000e+00 0.000000e+00
1
Step 349000
Ar -9.901261e-01 0.000000e+00 0.000000e+00
1
Step 350000
Ar -9.967284e-01 0.000000e+00 0.000000e+00
1
Step 351000
Ar -9.901248e-01 0.000000e+00 0.000000e+00
1
Step 352000
Ar -9.928390e-01 0.000000e+00 0.000000e+00
1
Step 353000
Ar -9.931357e-01 0.000000e+00 0.000000e+00
1
Step 354000
Ar -9.946562e-01 0.000000e+00 0.000000e+00
1
Step 355000
Ar -1.018013e+00 0.000000e+00 0.000000e+00
1
Step 356000
Ar -7.331214e-01 0.000000e+00 0.000000e+00
1
Step 357000
Ar -8.667424e-01 0.000000e+00 0.000000e+00
1
Step 358000
Ar -8.781366e-01 0.000000e+00 0.000000e+00
1
Step 359000
Ar -8.191665e-01 0.000000e+00 0.000000e+00
1
Step 360000
Ar -4.361420e-01 0.000000e+00 0.000000e+00
1
Step 361000
Ar -5.480279e-01 0.000000e+00 0.000000e+00
1
Step 362000
Ar -5.760068e-01 0.000000e+00 0.000000e+00
1
Step 363000
Ar -5.635597e-01 0.000000e+00 0.000000e+00
1
Step 364000
Ar -5.599716e-01 0.000000e+00 0.000000e+00
1
Step 365000
Ar -5.366225e-01 0.000000e+00 0.000000e+00
1
Step 366000
Ar -5.448499e-01 0.000000e+00 0.000000e+00
1
Step 367000
Ar -5.823407e-01 0.000000e+00 0.000000e+00
1
Step 368000
Ar -4.948745e-01 0.000000e+00 0.000000e+00
1
Step 369000
Ar -4.623451e-01 0.000000e+00 0.000000e+00
1
Step 370000
Ar -4.882132e-01 0.000000e+00 0.000000e+00
1
Step 371000
Ar -3.986953e-01 0.000000e+00 0.000000e+00
1
Step 372000
Ar -4.804560e-01 0.000000e+00 0.000000e+00
1
Step 373000
Ar -4.813400e-01 0.000000e+00 0.000000e+00
1
Step 374000
Ar -4.759266e-01 0.000000e+00 0.000000e+00
1
Step 375000
Ar -4.204658e-01 0.000000e+00 0.000000e+00
1
Step 376000
Ar -4.912843e-01 0.000000e+00 0.000000e+00
1
Step 377000
Ar -4.953834e-01 0.000000e+00 0.000000e+00
1
Step 378000
Ar -4.936979e-01 0.000000e+00 0.000000e+00
1
Step 379000
Ar -4.845695e-01 0.000000e+00 0.000000e+00
1
Step 380000
Ar -4.242647e-01 0.000000e+00 0.000000e+00
1
Step 381000
Ar -4.333900e-01 0.000000e+00 0.000000e+00
1
Step 382000
Ar -6.594235e-01 0.000000e+00 0.000000e+00
1
Step 383000
Ar -7.496153e-01 0.000000e+00 0.000000e+00
1
Step 384000
Ar -7.894843e-01 0.000000e+00 0.000000e+00
1
Step 385000
Ar -7.327022e-01 0.000000e+00 0.000000e+00
1
Step 386000
Ar -7.979354e-01 0.000000e+00 0.000000e+00
1
Step 387000
Ar -8.046180e-01 0.000000e+00 0.000000e+00
1
Step 388000
Ar -7.879184e-01 0.000000e+00 0.000000e+00
1
Step 389000
Ar -7.935960e-01 0.000000e+00 0.000000e+00
1
Step 390000
Ar -7.836889e-01 0.000000e+00 0.000000e+00
1
Step 391000
Ar -6.875486e-01 0.000000e+00 0.000000e+00
1
Step 392000
Ar -7.149049e-01 0.000000e+00 0.000000e+00
1
Step 393000
Ar -6.848773e-01 0.000000e+00 0.000000e+00
1
Step 394000
Ar -7.106129e-01 0.000000e+00 0.000000e+00
1
Step 395000
Ar -7.137477e-01 0.000000e+00 0.000000e+00
1
Step 396000
Ar -6.849371e-01 0.000000e+00 0.000000e+00
1
Step 397000
Ar -6.877910e-01 0.000000e+00 0.000000e+00
1
Step 398000
Ar -6.983353e-01 0.000000e+00 0.000000e+00
1
Step 399000
Ar -6.803508e-01 0.000000e+00 0.000000e+00
1
Step 400000
Ar -7.162409e-01 0.000000e+00 0.000000e+00
1
Step 401000
Ar -8.880849e-01 0.000000e+00 0.000000e+00
1
Step 402000
Ar -8.691838e-01 0.000000e+00 0.000000e+00
1
Step 403000
Ar -8.797301e-01 0.000000e+00 0.000000e+00
1
Step 404000
Ar -7.967619e-01 0.000000e+00 0.000000e+00
1
Step 405000
Ar -7.996089e-01 0.000000e+00 0.000000e+00
1
Step 406000
Ar -7.894878e-01 0.000000e+00 0.000000e+00
1
Step 407000
Ar -7.836063e-01 0.000000e+00 0.000000e+00
1
Step 408000
Ar -7.750609e-01 0.000000e+00 0.000000e+00
1
Step 409000
Ar -7.760120e-01 0.000000e+00 0.000000e+00
1
Step 410000
Ar -7.808668e-01 0.000000e+00 0.000000e+00
1
Step 411000
Ar -7.831747e-01 0.000000e+00 0.000000e+00
1
Step 412000
Ar -7.808732e-01 0.000000e+00 0.000000e+00
1
Step 413000
Ar -7.813067e-01 0.000000e+00 0.000000e+00
1
Step 414000
Ar -7.858968e-01 0.000000e+00 0.000000e+00
1
Step 415000
Ar -7.800711e-01 0.000000e+00 0.000000e+00
1
Step 416000
Ar -7.839560e-01 0.000000e+00 0.000000e+00
1
Step 417000
Ar -7.781501e-01 0.000000e+00 0.000000e+00
1
Step 418000
Ar -7.287810e-01 0.000000e+00 0.000000e+00
1
Step 419000
Ar -7.307480e-01 0.000000e+00 0.000000e+00
1
Step 420000
Ar -7.304724e-01 0.000000e+00 0.000000e+00
1
Step 421000
Ar -7.280225e-01 0.000000e+00 0.000000e+00
1
Step 422000
Ar -7.336516e-01 0.000000e+00 0.000000e+00
1
Step 423000
Ar -7.250783e-01 0.000000e+00 0.000000e+00
1
Step 424000
Ar -7.266413e-01 0.000000e+00 0.000000e+00
1
Step 425000
Ar -8.686673e-01 0.000000e+00 0.000000e+00
1
Step 426000
Ar -8.675134e-01 0.000000e+00 0.000000e+00
1
Step 427000
Ar -8.694865e-01 0.000000e+00 0.000000e+00
1
Step 428000
Ar -8.633363e-01 0.000000e+00 0.000000e+00
1
Step 429000
Ar -8.666805e-01 0.000000e+00 0.000000e+00
1
Step 430000
Ar -8.657314e-01 0.000000e+00 0.000000e+00
1
Step 431000
Ar -8.653154e-01 0.000000e+00 0.000000e+00
1
Step 432000
Ar -6.051833e-01 0.000000e+00 0.000000e+00
1
Step 433000
Ar -6.029614e-01 0.000000e+00 0.000000e+00
1
Step 434000
Ar -6.074765e-01 0.000000e+00 0.000000e+00
1
Step 435000
Ar -6.285383e-01 0.000000e+00 0.000000e+00
1
Step 436000
Ar -6.269070e-01 0.000000e+00 0.000000e+00
1
Step 437000
Ar -6.055742e-01 0.000000e+00 0.000000e+00
1
Step 438000
Ar -6.006056e-01 0.000000e+00 0.000000e+00
1
Step 439000
Ar -5.796320e-01 0.000000e+00 0.000000e+00
1
Step 440000
Ar -5.801266e-01 0.000000e+00 0.000000e+00
1
Step 441000
Ar -5.804492e-01 0.000000e+00 0.000000e+00
1
Step 442000
Ar -5.843461e-01 0.000000e+00 0.000000e+00
1
Step 443000
Ar -5.793449e-01 0.000000e+00 0.000000e+00
1
Step 444000
Ar -1.192314e+00 0.000000e+00 0.000000e+00
1
Step 445000
Ar -1.186687e+00 0.000000e+00 0.000000e+00
1
Step 446000
Ar -1.199316e+00 0.000000e+00 0.000000e+00
1
Step 447000
Ar -1.180672e+00 0.000000e+00 0.000000e+00
1
Step 448000
Ar -1.183194e+00 0.000000e+00 0.000000e+00
1
Step 449000
Ar -1.270147e+00 0.000000e+00 0.000000e+00
1
Step 450000
Ar -1.231757e+00 0.000000e+00 0.000000e+00
1
Step 451000
Ar -1.236350e+00 0.000000e+00 0.000000e+00
1
Step 452000
Ar -1.268805e+00 0.000000e+00 0.000000e+00
1
Step 453000
Ar -1.253357e+00 0.000000e+00 0.000000e+00
1
Step 454000
Ar -1.314394e+00 0.000000e+00 0.000000e+00
1
Step 455000
Ar -1.240497e+00 0.000000e+00 0.000000e+00
1
Step 456000
Ar -1.259312e+00 0.000000e+00 0.000000e+00
1
Step 457000
Ar -1.236549e+00 0.000000e+00 0.000000e+00
1
Step 458000
Ar -1.267020e+00 0.000000e+00 0.000000e+00
1
Step 459000
Ar -1.309072e+00 0.000000e+00 0.000000e+00
1
Step 460000
Ar -1.346796e+00 0.000000e+00 0.000000e+00
1
Step 461000
Ar -1.310837e+00 0.000000e+00 0.000000e+00
1
Step 462000
Ar -1.309629e+00 0.000000e+00 0.000000e+00
1
Step 463000
Ar -1.296642e+00 0.000000e+00 0.000000e+00
1
Step 464000
Ar -1.319913e+00 0.000000e+00 0.000000e+00
1
Step 465000
Ar -1.318536e+00 0.000000e+00 0.000000e+00
1
Step 466000
Ar -1.322027e+00 0.000000e+00 0.000000e+00
1
Step 467000
Ar -1.267702e+00 0.000000e+00 0.000000e+00
1
Step 468000
Ar -1.269928e+00 0.000000e+00 0.000000e+00
1
Step 469000
Ar -1.290440e+00 0.000000e+00 0.000000e+00
1
Step 470000
Ar -1.311884e+00 0.000000e+00 0.000000e+00
1
Step 471000
Ar -1.315891e+00 0.000000e+00 0.000000e+00
1
Step 472000
Ar -1.307227e+00 0.000000e+00 0.000000e+00
1
Step 473000
Ar 2.495972e-01 0.000000e+00 0.000000e+00
1
Step 474000
Ar 4.470592e-01 0.000000e+00 0.000000e+00
1
Step 475000
Ar 4.300058e-01 0.000000e+00 0.000000e+00
1
Step 476000
Ar 3.381602e-01 0.000000e+00 0.000000e+00
1
Step 477000
Ar 4.190036e-01 0.000000e+00 0.000000e+00
1
Step 478000
Ar 3.689819e-01 0.000000e+00 0.000000e+00
1
Step 479000
Ar 4.043010e-01 0.000000e+00 0.000000e+00
1
Step 480000
Ar 3.611898e-01 0.000000e+00 0.000000e+00
1
Step 481000
Ar 3.654904e-01 0.000000e+00 0.000000e+00
1
Step 482000
Ar 3.615993e-01 0.000000e+00 0.000000e+00
1
Step 483000
Ar 3.671624e-01 0.000000e+00 0.000000e+00
1
Step 484000
Ar 3.127520e-01 0.000000e+00 0.000000e+00
1
Step 485000
Ar 3.475989e-01 0.000000e+00 0.000000e+00
1
Step 486000
Ar 3.649562e-01 0.000000e+00 0.000000e+00
1
Step 487000
Ar 3.419660e-01 0.000000e+00 0.000000e+00
1
Step 488000
Ar 3.766641e-01 0.000000e+00 0.000000e+00
1
Step 489000
Ar 3.784416e-01 0.000000e+00 0.000000e+00
1
Step 490000
Ar 3.773074e-01 0.000000e+00 0.000000e+00
1
Step 491000
Ar 3.791087e-01 0.000000e+00 0.000000e+00
1
Step 492000
Ar 5.483184e-01 0.000000e+00 0.000000e+00
1
Step 493000
Ar 5.364203e-01 0.000000e+00 0.000000e+00
1
Step 494000
Ar 5.489576e-01 0.000000e+00 0.000000e+00
1
Step 495000
Ar 5.290565e-01 0.000000e+00 0.000000e+00
1
Step 496000
Ar 4.881836e-01 0.000000e+00 0.000000e+00
1
Step 497000
Ar 5.002939e-01 0.000000e+00 0.000000e+00
1
Step 498000
Ar 5.320526e-01 0.000000e+00 0.000000e+00
1
Step 499000
Ar 4.751992e-01 0.000000e+00 0.000000e+00
1
Step 500000
Ar 3.090848e-01 0.000000e+00 0.000000e+00
1
Step 501000
Ar 2.839003e-01 0.000000e+00 0.000000e+00
1
Step 502000
Ar 3.530590e-01 0.000000e+00 0.000000e+00
1
Step 503000
Ar 3.050279e-01 0.000000e+00 0.000000e+00
1
Step 504000
Ar 2.976331e-01 0.000000e+00 0.000000e+00
1
Step 505000
Ar 3.377514e-01 0.000000e+00 0.000000e+00
1
Step 506000
Ar 1.692380e-01 0.000000e+00 0.000000e+00
1
Step 507000
Ar 1.857056e-01 0.000000e+00 0.000000e+00
1
Step 508000
Ar 1.745396e-01 0.000000e+00 0.000000e+00
1
Step 509000
Ar 1.947955e-01 0.000000e+00 0.000000e+00
1
Step 510000
Ar 1.719269e-01 0.000000e+00 0.000000e+00
1
Step 511000
Ar 1.652819e-01 0.000000e+00 0.000000e+00
1
Step 512000
Ar 1.929301e-01 0.000000e+00 0.000000e+00
1
Step 513000
Ar 1.632416e-01 0.000000e+00 0.000000e+00
1
Step 514000
Ar 1.894331e-01 0.000000e+00 0.000000e+00
1
Step 515000
Ar 1.911164e-01 0.000000e+00 0.000000e+00
1
Step 516000
Ar 1.695442e-01 0.000000e+00 0.000000e+00
1
Step 517000
Ar 1.733121e-01 0.000000e+00 0.000000e+00
1
Step 518000
Ar 1.815841e-01 0.000000e+00 0.000000e+00
1
Step 519000
Ar 1.923802e-01 0.000000e+00 0.000000e+00
1
Step 520000
Ar 1.954823e-01 0.000000e+00 0.000000e+00
1
Step 521000
Ar 1.970787e-01 0.000000e+00 0.000000e+00
1
Step 522000
Ar 1.926764e-01 0.000000e+00 0.000000e+00
1
Step 523000
Ar 1.950616e-01 0.000000e+00 0.000000e+00
1
Step 524000
Ar 1.942329e-01 0.000000e+00 0.000000e+00
1
Step 525000
Ar 1.961232e-01 0.000000e+00 0.000000e+00
1
Step 526000
Ar 1.977515e-01 0.000000e+00 0.000000e+00
1
Step 527000
Ar 1.979889e-01 0.000000e+00 0.000000e+00
1
Step 528000
Ar 1.947631e-01 0.000000e+00 0.000000e+00
1
Step 529000
Ar -1.031347e-01 0.000000e+00 0.000000e+00
1
Step 530000
Ar -2.780721e-01 0.000000e+00 0.000000e+00
1
Step 531000
Ar 3.100848e-03 0.000000e+00 0.000000e+00
1
Step 532000
Ar 7.119233e-02 0.000000e+00 0.000000e+00
1
Step 533000
Ar 4.951345e-02 0.000000e+00 0.000000e+00
1
Step 534000
Ar 4.577371e-02 0.000000e+00 0.000000e+00
1
Step 535000
Ar 1.118121e-01 0.000000e+00 0.000000e+00
1
Step 536000
Ar 1.922014e-02 0.000000e+00 0.000000e+00
1
Step 537000
Ar 1.303906e-01 0.000000e+00 0.000000e+00
1
Step 538000
Ar -5.081919e-03 0.000000e+00 0.000000e+00
1
Step 539000
Ar -1.595603e-02 0.000000e+00 0.000000e+00
1
Step 540000
Ar -9.787101e-03 0.000000e+00 0.000000e+00
1
Step 541000
Ar -8.918223e-03 0.000000e+00 0.000000e+00
1
Step 542000
Ar -9.683297e-03 0.000000e+00 0.000000e+00
1
Step 543000
Ar 8.383456e-02 0.000000e+00 0.000000e+00
1
Step 544000
Ar 1.203458e-01 0.000000e+00 0.000000e+00
1
Step 545000
Ar 1.203086e-01 0.000000e+00 0.000000e+00
1
Step 546000
Ar 9.905590e-03 0.000000e+00 0.000000e+00
1
Step 547000
Ar -7.657999e-03 0.000000e+00 0.000000e+00
1
Step 548000
Ar -1.680262e-02 0.000000e+00 0.000000e+00
1
Step 549000
Ar 1.059679e-01 0.000000e+00 0.000000e+00
1
Step 550000
Ar 2.936713e-02 0.000000e+00 0.000000e+00
1
Step 551000
Ar 7.558580e-02 0.000000e+00 0.000000e+00
1
Step 552000
Ar 1.231200e-01 0.000000e+00 0.000000e+00
1
Step 553000
Ar 1.166493e-01 0.000000e+00 0.000000e+00
1
Step 554000
Ar 6.906868e-02 0.000000e+00 0.000000e+00
1
Step 555000
Ar 1.242301e-02 0.000000e+00 0.000000e+00
1
Step 556000
Ar 2.778849e-02 0.000000e+00 0.000000e+00
1
Step 557000
Ar 1.362543e-02 0.000000e+00 0.000000e+00
1
Step 558000
Ar 2.262079e-02 0.000000e+00 0.000000e+00
1
Step 559000
Ar 2.784193e-02 0.000000e+00 0.000000e+00
1
Step 560000
Ar 3.291763e-02 0.000000e+00 0.000000e+00
1
Step 561000
Ar 2.785040e-02 0.000000e+00 0.000000e+00
1
Step 562000
Ar 1.351957e-02 0.000000e+00 0.000000e+00
1
Step 563000
Ar 2.738926e-02 0.000000e+00 0.000000e+00
1
Step 564000
Ar 3.694038e-02 0.000000e+00 0.000000e+00
1
Step 565000
Ar 3.322098e-02 0.000000e+00 0.000000e+00
1
Step 566000
Ar 3.216419e-02 0.000000e+00 0.000000e+00
1
Step 567000
Ar 3.642070e-02 0.000000e+00 0.000000e+00
1
Step 568000
Ar 2.534566e-02 0.000000e+00 0.000000e+00
1
Step 569000
Ar 3.188112e-02 0.000000e+00 0.000000e+00
1
Step 570000
Ar 3.882946e-02 0.000000e+00 0.000000e+00
1
Step 571000
Ar 4.003335e-02 0.000000e+00 0.000000e+00
1
Step 572000
Ar 3.239231e-02 0.000000e+00 0.000000e+00
1
Step 573000
Ar 3.344496e-02 0.000000e+00 0.000000e+00
1
Step 574000
Ar 3.208365e-02 0.000000e+00 0.000000e+00
1
Step 575000
Ar 3.896590e-02 0.000000e+00 0.000000e+00
1
Step 576000
Ar 3.463597e-02 0.000000e+00 0.000000e+00
1
Step 577000
Ar 3.717800e-02 0.000000e+00 0.000000e+00
1
Step 578000
Ar 3.671791e-02 0.000000e+00 0.000000e+00
1
Step 579000
Ar 3.457339e-02 0.000000e+00 0.000000e+00
1
Step 580000
Ar 3.253819e-02 0.000000e+00 0.000000e+00
1
Step 581000
Ar 2.586730e-02 0.000000e+00 0.000000e+00
1
Step 582000
Ar 3.230305e-02 0.000000e+00 0.000000e+00
1
Step 583000
Ar 3.215030e-02 0.000000e+00 0.000000e+00
1
Step 584000
Ar 2.998321e-02 0.000000e+00 0.000000e+00
1
Step 585000
Ar 3.275212e-02 0.000000e+00 0.000000e+00
1
Step 586000
Ar 3.413648e-02 0.000000e+00 0.000000e+00
1
Step 587000
Ar 1.143687e-01 0.000000e+00 0.000000e+00
1
Step 588000
Ar 1.356104e-01 0.000000e+00 0.000000e+00
1
Step 589000
Ar 1.337789e-01 0.000000e+00 0.000000e+00
1
Step 590000
Ar 1.301402e-01 0.000000e+00 0.000000e+00
1
Step 591000
Ar 1.358267e-01 0.000000e+00 0.000000e+00
1
Step 592000
Ar 1.285101e-01 0.000000e+00 0.000000e+00
1
Step 593000
Ar 1.329785e-01 0.000000e+00 0.000000e+00
1
Step 594000
Ar 1.317580e-01 0.000000e+00 0.000000e+00
1
Step 595000
Ar 1.285513e-01 0.000000e+00 0.000000e+00
1
Step 596000
Ar 1.415227e-01 0.000000e+00 0.000000e+00
1
Step 597000
Ar 1.374753e-01 0.000000e+00 0.000000e+00
1
Step 598000
Ar 1.335789e-01 0.000000e+00 0.000000e+00
1
Step 599000
Ar 1.343542e-01 0.000000e+00 0.000000e+00
1
Step 600000
Ar 1.598327e-01 0.000000e+00 0.000000e+00
1
Step 601000
Ar 1.555807e-01 0.000000e+00 0.000000e+00
1
Step 602000
Ar 1.590075e-01 0.000000e+00 0.000000e+00
1
Step 603000
Ar 1.607337e-01 0.000000e+00 0.000000e+00
1
Step 604000
Ar 1.626648e-01 0.000000e+00 0.000000e+00
1
Step 605000
Ar 1.224490e+00 0.000000e+00 0.000000e+00
1
Step 606000
Ar 1.222752e+00 0.000000e+00 0.000000e+00
1
Step 607000
Ar 1.231845e+00 0.000000e+00 0.000000e+00
1
Step 608000
Ar 1.220609e+00 0.000000e+00 0.000000e+00
1
Step 609000
Ar 1.218247e+00 0.000000e+00 0.000000e+00
1
Step 610000
Ar 1.230501e+00 0.000000e+00 0.000000e+00
1
Step 611000
Ar 1.214826e+00 0.000000e+00 0.000000e+00
1
Step 612000
Ar 1.215771e+00 0.000000e+00 0.000000e+00
1
Step 613000
Ar 1.187069e+00 0.000000e+00 0.000000e+00
1
Step 614000
Ar 1.244327e+00 0.000000e+00 0.000000e+00
1
Step 615000
Ar 1.254953e+00 0.000000e+00 0.000000e+00
1
Step 616000
Ar 1.238611e+00 0.000000e+00 0.000000e+00
1
Step 617000
Ar 1.246964e+00 0.000000e+00 0.000000e+00
1
Step 618000
Ar 1.255821e+00 0.000000e+00 0.000000e+00
1
Step 619000
Ar 1.254662e+00 0.000000e+00 0.000000e+00
1
Step 620000
Ar 1.253718e+00 0.000000e+00 0.000000e+00
1
Step 621000
Ar 1.037575e+00 0.000000e+00 0.000000e+00
1
Step 622000
Ar 9.881529e-01 0.000000e+00 0.000000e+00
1
Step 623000
Ar 9.887918e-01 0.000000e+00 0.000000e+00
1
Step 624000
Ar 1.058682e+00 0.000000e+00 0.000000e+00
1
Step 625000
Ar 1.059365e+00 0.000000e+00 0.000000e+00
1
Step 626000
Ar 1.014809e+00 0.000000e+00 0.000000e+00
1
Step 627000
Ar 1.020155e+00 0.000000e+00 0.000000e+00
1
Step 628000
Ar 1.019493e+00 0.000000e+00 0.000000e+00
1
Step 629000
Ar 1.030447e+00 0.000000e+00 0.000000e+00
1
Step 630000
Ar 1.048290e+00 0.000000e+00 0.000000e+00
1
Step 631000
Ar 1.064974e+00 0.000000e+00 0.000000e+00
1
Step 632000
Ar 1.068142e+00 0.000000e+00 0.000000e+00
1
Step 633000
Ar 1.063290e+00 0.000000e+00 0.000000e+00
1
Step 634000
Ar 1.014821e+00 0.000000e+00 0.000000e+00
1
Step 635000
Ar 1.054367e+00 0.000000e+00 0.000000e+00
1
Step 636000
Ar 1.029283e+00 0.000000e+00 0.000000e+00
1
Step 637000
Ar 1.070952e+00 0.000000e+00 0.000000e+00
1
Step 638000
Ar 1.050624e+00 0.000000e+00 0.000000e+00
1
Step 639000
Ar 1.048840e+00 0.000000e+00 0.000000e+00
1
Step 640000
Ar 1.059376e+00 0.000000e+00 0.000000e+00
1
Step 641000
Ar 1.077774e+00 0.000000e+00 0.000000e+00
1
Step 642000
Ar 1.066219e+00 0.000000e+00 0.000000e+00
1
Step 643000
Ar 1.135138e+00 0.000000e+00 0.000000e+00
1
Step 644000
Ar 1.017568e+00 0.000000e+00 0.000000e+00
1
Step 645000
Ar 1.011545e+00 0.000000e+00 0.000000e+00
1
Step 646000
Ar 1.015959e+00 0.000000e+00 0.000000e+00
1
Step 647000
Ar 1.011988e+00 0.000000e+00 0.000000e+00
1
Step 648000
Ar 1.019307e+00 0.000000e+00 0.000000e+00
1
Step 649000
Ar 1.017657e+00 0.000000e+00 0.000000e+00
1
Step 650000
Ar 1.018922e+00 0.000000e+00 0.000000e+00
1
Step 651000