1
Step 120000
Ar 1.002240e+00 0.000000e+00 0.000000e+00
1
Step 121000
Ar 9.903198e-01 0.000000e+00 0.000000e+00
1
Step 122000
Ar 9.951926e-01 0.000000e+00 0.000000e+00
1
Step 123000
Ar 1.007763e+00 0.000000e+00 0.000000e+00
1
Step 124000
Ar 1.012035e+00 0.000000e+00 0.000000e+00
1
Step 125000
Ar 1.001941e+00 0.000000e+00 0.000000e+00
1
Step 126000
Ar 9.893154e-01 0.000000e+00 0.000000e+00
1
Step 127000
Ar 9.903335e-01 0.000000e+00 0.000000e+00
1
Step 128000
Ar 9.923838e-01 0.000000e+00 0.000000e+00
1
Step 129000
Ar 9.866940e-01 0.000000e+00 0.000000e+00
1
Step 130000
Ar 9.932105e-01 0.000000e+00 0.000000e+00
1
Step 131000
Ar 9.827833e-01 0.000000e+00 0.000000e+00
1
Step 132000
Ar 9.888631e-01 0.000000e+00 0.000000e+00
1
Step 133000
Ar 9.891199e-01 0.000000e+00 0.000000e+00
1
Step 134000
Ar 9.918062e-01 0.000000e+00 0.000000e+00
1
Step 135000
Ar 9.837739e-01 0.000000e+00 0.000000e+00
1
Step 136000
Ar 9.802229e-01 0.000000e+00 0.000000e+00
1
Step 137000
Ar 9.743557e-01 0.000000e+00 0.000000e+00
1
Step 138000
Ar 9.901549e-01 0.000000e+00 0.000000e+00
1
Step 139000
Ar 9.915082e-01 0.000000e+00 0.000000e+00
1
Step 140000
Ar 1.032805e+00 0.000000e+00 0.000000e+00
1
Step 141000
Ar 1.020143e+00 0.000000e+00 0.000000e+00
1
Step 142000
Ar 1.017152e+00 0.000000e+00 0.000000e+00
1
Step 143000
Ar 1.108639e+00 0.000000e+00 0.000000e+00
1
Step 144000
Ar 1.011545e+00 0.000000e+00 0.000000e+00
1
Step 145000
Ar 1.009503e+00 0.000000e+00 0.000000e+00
1
Step 146000
Ar 1.032817e+00 0.000000e+00 0.000000e+00
1
Step 147000
Ar 9.392788e-01 0.000000e+00 0.000000e+00
1
Step 148000
Ar 9.413123e-01 0.000000e+00 0.000000e+00
1
Step 149000
Ar 1.038440e+00 0.000000e+00 0.000000e+00
1
Step 150000
Ar 1.044714e+00 0.000000e+00 0.000000e+00
1
Step 151000
Ar 1.041421e+00 0.000000e+00 0.000000e+00
1
Step 152000
Ar 1.043562e+00 0.000000e+00 0.000000e+00
1
Step 153000
Ar 9.671639e-01 0.000000e+00 0.000000e+00
1
Step 154000
Ar 9.680880e-01 0.000000e+00 0.000000e+00
1
Step 155000
Ar 1.037124e+00 0.000000e+00 0.000000e+00
1
Step 156000
Ar 1.031345e+00 0.000000e+00 0.000000e+00
1
Step 157000
Ar 1.056625e+00 0.000000e+00 0.000000e+00
1
Step 158000
Ar 1.053957e+00 0.000000e+00 0.000000e+00
1
Step 159000
Ar 1.054340e+00 0.000000e+00 0.000000e+00
1
Step 160000
Ar 1.055703e+00 0.000000e+00 0.000000e+00
1
Step 161000
Ar 1.061072e+00 0.000000e+00 0.000000e+00
1
Step 162000
Ar 1.056723e+00 0.000000e+00 0.000000e+00
1
Step 163000
Ar 9.636306e-01 0.000000e+00 0.000000e+00
1
Step 164000
Ar 9.880193e-01 0.000000e+00 0.000000e+00
1
Step 165000
Ar 9.850981e-01 0.000000e+00 0.000000e+00
1
Step 166000
Ar 9.822630e-01 0.000000e+00 0.000000e+00
1
Step 167000
Ar 9.766991e-01 0.000000e+00 0.000000e+00
1
Step 168000
Ar 9.879245e-01 0.000000e+00 0.000000e+00
1
Step 169000
Ar 1.014955e+00 0.000000e+00 0.000000e+00
1
Step 170000
Ar 1.007675e+00 0.000000e+00 0.000000e+00
1
Step 171000
Ar 9.444686e-01 0.000000e+00 0.000000e+00
1
Step 172000
Ar 9.463376e-01 0.000000e+00 0.000000e+00
1
Step 173000
Ar 9.453370e-01 0.000000e+00 0.000000e+00
1
Step 174000
Ar 9.442091e-01 0.000000e+00 0.000000e+00
1
Step 175000
Ar 9.824324e-01 0.000000e+00 0.000000e+00
1
Step 176000
Ar 1.005532e+00 0.000000e+00 0.000000e+00
1
Step 177000
Ar 1.056838e+00 0.000000e+00 0.000000e+00
1
Step 178000
Ar 1.057658e+00 0.000000e+00 0.000000e+00
1
Step 179000
Ar 1.058490e+00 0.000000e+00 0.000000e+00
1
Step 180000
Ar 9.565100e-01 0.000000e+00 0.000000e+00
1
Step 181000
Ar 1.034581e+00 0.000000e+00 0.000000e+00
1
Step 182000
Ar 1.004530e+00 0.000000e+00 0.000000e+00
1
Step 183000
Ar 1.002475e+00 0.000000e+00 0.000000e+00
1
Step 184000
Ar 9.709968e-01 0.000000e+00 0.000000e+00
1
Step 185000
Ar 9.748569e-01 0.000000e+00 0.000000e+00
1
Step 186000
Ar 9.733617e-01 0.000000e+00 0.000000e+00
1
Step 187000
Ar 9.359426e-01 0.000000e+00 0.000000e+00
1
Step 188000
Ar 1.124401e+00 0.000000e+00 0.000000e+00
1
Step 189000
Ar 1.072400e+00 0.000000e+00 0.000000e+00
1
Step 190000
Ar 1.069551e+00 0.000000e+00 0.000000e+00
1
Step 191000
Ar 1.033661e+00 0.000000e+00 0.000000e+00
1
Step 192000
Ar 1.035704e+00 0.000000e+00 0.000000e+00
1
Step 193000
Ar 1.017388e+00 0.000000e+00 0.000000e+00
1
Step 194000
Ar 8.497755e-01 0.000000e+00 0.000000e+00
1
Step 195000
Ar 1.053612e+00 0.000000e+00 0.000000e+00
1
Step 196000
Ar 1.074789e+00 0.000000e+00 0.000000e+00
1
Step 197000
Ar 1.071351e+00 0.000000e+00 0.000000e+00
1
Step 198000
Ar 1.022826e+00 0.000000e+00 0.000000e+00
1
Step 199000
Ar 1.022372e+00 0.000000e+00 0.000000e+00
1
Step 200000
Ar 9.648183e-01 0.000000e+00 0.000000e+00
1
Step 201000
Ar 9.746635e-01 0.000000e+00 0.000000e+00
1
Step 202000
Ar 1.090550e+00 0.000000e+00 0.000000e+00
1
Step 203000
Ar 1.033820e+00 0.000000e+00 0.000000e+00
1
Step 204000
Ar 1.056363e+00 0.000000e+00 0.000000e+00
1
Step 205000
Ar 1.039339e+00 0.000000e+00 0.000000e+00
1
Step 206000
Ar 1.037250e+00 0.000000e+00 0.000000e+00
1
Step 207000
Ar 1.040832e+00 0.000000e+00 0.000000e+00
1
Step 208000
Ar 1.044322e+00 0.000000e+00 0.000000e+00
1
Step 209000
Ar 1.078473e+00 0.000000e+00 0.000000e+00
1
Step 210000
Ar 1.081772e+00 0.000000e+00 0.000000e+00
1
Step 211000
Ar 1.081996e+00 0.000000e+00 0.000000e+00
1
Step 212000
Ar 1.038781e+00 0.000000e+00 0.000000e+00
1
Step 213000
Ar 1.039863e+00 0.000000e+00 0.000000e+00
1
Step 214000
Ar 1.062721e+00 0.000000e+00 0.000000e+00
1
Step 215000
Ar 1.039054e+00 0.000000e+00 0.000000e+00
1
Step 216000
Ar 1.034158e+00 0.000000e+00 0.000000e+00
1
Step 217000
Ar 9.914609e-01 0.000000e+00 0.000000e+00
1
Step 218000
Ar 9.985683e-01 0.000000e+00 0.000000e+00
1
Step 219000
Ar 9.958022e-01 0.000000e+00 0.000000e+00
1
Step 220000
Ar 9.984075e-01 0.000000e+00 0.000000e+00
1
Step 221000
Ar 9.981112e-01 0.000000e+00 0.000000e+00
1
Step 222000
Ar 1.039094e+00 0.000000e+00 0.000000e+00
1
Step 223000
Ar 1.030622e+00 0.000000e+00 0.000000e+00
1
Step 224000
Ar 1.036891e+00 0.000000e+00 0.000000e+00
1
Step 225000
Ar 9.191238e-01 0.000000e+00 0.000000e+00
1
Step 226000
Ar 9.194333e-01 0.000000e+00 0.000000e+00
1
Step 227000
Ar 9.527840e-01 0.000000e+00 0.000000e+00
1
Step 228000
Ar 1.043752e+00 0.000000e+00 0.000000e+00
1
Step 229000
Ar 1.054573e+00 0.000000e+00 0.000000e+00
1
Step 230000
Ar 1.049249e+00 0.000000e+00 0.000000e+00
1
Step 231000
Ar 9.485116e-01 0.000000e+00 0.000000e+00
1
Step 232000
Ar 9.703939e-01 0.000000e+00 0.000000e+00
1
Step 233000
Ar 1.028248e+00 0.000000e+00 0.000000e+00
1
Step 234000
Ar 9.770760e-01 0.000000e+00 0.000000e+00
1
Step 235000
Ar 9.757638e-01 0.000000e+00 0.000000e+00
1
Step 236000
Ar 9.418444e-01 0.000000e+00 0.000000e+00
1
Step 237000
Ar 1.027968e+00 0.000000e+00 0.000000e+00
1
Step 238000
Ar 9.410268e-01 0.000000e+00 0.000000e+00
1
Step 239000
Ar 9.199629e-01 0.000000e+00 0.000000e+00
1
Step 240000
Ar 9.192890e-01 0.000000e+00 0.000000e+00
1
Step 241000
Ar 9.204199e-01 0.000000e+00 0.000000e+00
1
Step 242000
Ar 9.390865e-01 0.000000e+00 0.000000e+00
1
Step 243000
Ar 9.152762e-01 0.000000e+00 0.000000e+00
1
Step 244000
Ar 9.196465e-01 0.000000e+00 0.000000e+00
1
Step 245000
Ar 9.174851e-01 0.000000e+00 0.000000e+00
1
Step 246000
Ar 9.166111e-01 0.000000e+00 0.000000e+00
1
Step 247000
Ar 9.166744e-01 0.000000e+00 0.000000e+00
1
Step 248000
Ar 9.171251e-01 0.000000e+00 0.000000e+00
1
Step 249000
Ar 9.156212e-01 0.000000e+00 0.000000e+00
1
Step 250000
Ar 9.171746e-01 0.000000e+00 0.000000e+00
1
Step 251000
Ar 9.158853e-01 0.000000e+00 0.000000e+00
1
Step 252000
Ar 9.796934e-01 0.000000e+00 0.000000e+00
1
Step 253000
Ar 9.741808e-01 0.000000e+00 0.000000e+00
1
Step 254000
Ar 8.819930e-01 0.000000e+00 0.000000e+00
1
Step 255000
Ar 8.785677e-01 0.000000e+00 0.000000e+00
1
Step 256000
Ar 9.878503e-01 0.000000e+00 0.000000e+00
1
Step 257000
Ar 1.097399e+00 0.000000e+00 0.000000e+00
1
Step 258000
Ar 1.071219e+00 0.000000e+00 0.000000e+00
1
Step 259000
Ar 1.032230e+00 0.000000e+00 0.000000e+00
1
Step 260000
Ar 1.025924e+00 0.000000e+00 0.000000e+00
1
Step 261000
Ar 1.030620e+00 0.000000e+00 0.000000e+00
1
Step 262000
Ar 1.049067e+00 0.000000e+00 0.000000e+00
1
Step 263000
Ar 9.195749e-01 0.000000e+00 0.000000e+00
1
Step 264000
Ar 1.115223e+00 0.000000e+00 0.000000e+00
1
Step 265000
Ar 1.045739e+00 0.000000e+00 0.000000e+00
1
Step 266000
Ar 1.044848e+00 0.000000e+00 0.000000e+00
1
Step 267000
Ar 1.048381e+00 0.000000e+00 0.000000e+00
1
Step 268000
Ar 1.045193e+00 0.000000e+00 0.000000e+00
1
Step 269000
Ar 1.046257e+00 0.000000e+00 0.000000e+00
1
Step 270000
Ar 1.043611e+00 0.000000e+00 0.000000e+00
1
Step 271000
Ar 1.055113e+00 0.000000e+00 0.000000e+00
1
Step 272000
Ar 1.094227e+00 0.000000e+00 0.000000e+00
1
Step 273000
Ar 9.890796e-01 0.000000e+00 0.000000e+00
1
Step 274000
Ar 1.038127e+00 0.000000e+00 0.000000e+00
1
Step 275000
Ar 9.257601e-01 0.000000e+00 0.000000e+00
1
Step 276000
Ar 9.396776e-01 0.000000e+00 0.000000e+00
1
Step 277000
Ar 9.198027e-01 0.000000e+00 0.000000e+00
1
Step 278000
Ar 9.443366e-01 0.000000e+00 0.000000e+00
1
Step 279000
Ar 9.894712e-01 0.000000e+00 0.000000e+00
1
Step 280000
Ar 9.926585e-01 0.000000e+00 0.000000e+00
1
Step 281000
Ar 9.890677e-01 0.000000e+00 0.000000e+00
1
Step 282000
Ar 9.900889e-01 0.000000e+00 0.000000e+00
1
Step 283000
Ar 9.891699e-01 0.000000e+00 0.000000e+00
1
Step 284000
Ar 9.898500e-01 0.000000e+00 0.000000e+00
1
Step 285000
Ar 1.165195e+00 0.000000e+00 0.000000e+00
1
Step 286000
Ar 1.101704e+00 0.000000e+00 0.000000e+00
1
Step 287000
Ar 1.136348e+00 0.000000e+00 0.000000e+00
1
Step 288000
Ar 9.575762e-01 0.000000e+00 0.000000e+00
1
Step 289000
Ar 1.087010e+00 0.000000e+00 0.000000e+00
1
Step 290000
Ar 9.865704e-01 0.000000e+00 0.000000e+00
1
Step 291000
Ar 9.812042e-01 0.000000e+00 0.000000e+00
1
Step 292000
Ar 9.744245e-01 0.000000e+00 0.000000e+00
1
Step 293000
Ar 9.352088e-01 0.000000e+00 0.000000e+00
1
Step 294000
Ar 1.013492e+00 0.000000e+00 0.000000e+00
1
Step 295000
Ar 9.243031e-01 0.000000e+00 0.000000e+00
1
Step 296000
Ar 9.713296e-01 0.000000e+00 0.000000e+00
1
Step 297000
Ar 1.063089e+00 0.000000e+00 0.000000e+00
1
Step 298000
Ar 1.022842e+00 0.000000e+00 0.000000e+00
1
Step 299000
Ar 1.018358e+00 0.000000e+00 0.000000e+00
1
Step 300000
Ar 1.018418e+00 0.000000e+00 0.000000e+00
1
Step 301000
Ar 1.019980e+00 0.000000e+00 0.000000e+00
1
Step 302000
Ar 9.772430e-01 0.000000e+00 0.000000e+00
1
Step 303000
Ar 9.267544e-01 0.000000e+00 0.000000e+00
1
Step 304000
Ar 9.233433e-01 0.000000e+00 0.000000e+00
1
Step 305000
Ar 9.413146e-01 0.000000e+00 0.000000e+00
1
Step 306000
Ar 9.988812e-01 0.000000e+00 0.000000e+00
1
Step 307000
Ar 9.285349e-01 0.000000e+00 0.000000e+00
1
Step 308000
Ar 1.136341e+00 0.000000e+00 0.000000e+00
1
Step 309000
Ar 1.091439e+00 0.000000e+00 0.000000e+00
1
Step 310000
Ar 9.542993e-01 0.000000e+00 0.000000e+00
1
Step 311000
Ar 9.840532e-01 0.000000e+00 0.000000e+00
1
Step 312000
Ar 9.826824e-01 0.000000e+00 0.000000e+00
1
Step 313000
Ar 9.846473e-01 0.000000e+00 0.000000e+00
1
Step 314000
Ar 1.022819e+00 0.000000e+00 0.000000e+00
1
Step 315000
Ar 1.020186e+00 0.000000e+00 0.000000e+00
1
Step 316000
Ar 1.023663e+00 0.000000e+00 0.000000e+00
1
Step 317000
Ar 1.028823e+00 0.000000e+00 0.000000e+00
1
Step 318000
Ar 1.034013e+00 0.000000e+00 0.000000e+00
1
Step 319000
Ar 1.028605e+00 0.000000e+00 0.000000e+00
1
Step 320000
Ar 1.032435e+00 0.000000e+00 0.000000e+00
1
Step 321000
Ar 1.038595e+00 0.000000e+00 0.000000e+00
1
Step 322000
Ar 1.031934e+00 0.000000e+00 0.000000e+00
1
Step 323000
Ar 1.033202e+00 0.000000e+00 0.000000e+00
1
Step 324000
Ar 9.869871e-01 0.000000e+00 0.000000e+00
1
Step 325000
Ar 9.979865e-01 0.000000e+00 0.000000e+00
1
Step 326000
Ar 9.959575e-01 0.000000e+00 0.000000e+00
1
Step 327000
Ar 1.033999e+00 0.000000e+00 0.000000e+00
1
Step 328000
Ar 1.096119e+00 0.000000e+00 0.000000e+00
1
Step 329000
Ar 8.373588e-01 0.000000e+00 0.000000e+00
1
Step 330000
Ar 8.776112e-01 0.000000e+00 0.000000e+00
1
Step 331000
Ar 8.826866e-01 0.000000e+00 0.000000e+00
1
Step 332000
Ar 9.583979e-01 0.000000e+00 0.000000e+00
1
Step 333000
Ar 9.711631e-01 0.000000e+00 0.000000e+00
1
Step 334000
Ar 8.803893e-01 0.000000e+00 0.000000e+00
1
Step 335000
Ar 9.135997e-01 0.000000e+00 0.000000e+00
1
Step 336000
Ar 9.725924e-01 0.000000e+00 0.000000e+00
1
Step 337000
Ar 1.041297e+00 0.000000e+00 0.000000e+00
1
Step 338000
Ar 8.987815e-01 0.000000e+00 0.000000e+00
1
Step 339000
Ar 8.810822e-01 0.000000e+00 0.000000e+00
1
Step 340000
Ar 8.189737e-01 0.000000e+00 0.000000e+00
1
Step 341000
Ar 1.119987e+00 0.000000e+00 0.000000e+00
1
Step 342000
Ar 1.121834e+00 0.000000e+00 0.000000e+00
1
Step 343000
Ar 9.181306e-01 0.000000e+00 0.000000e+00
1
Step 344000
Ar 1.006255e+00 0.000000e+00 0.000000e+00
1
Step 345000
Ar 8.830337e-01 0.000000e+00 0.000000e+00
1
Step 346000
Ar 8.778160e-01 0.000000e+00 0.000000e+00
1
Step 347000
Ar 8.669311e-01 0.000000e+00 0.000000e+00
1
Step 348000
Ar 8.368375e-01 0.000000e+00 0.000000e+00
1
Step 349000
Ar 1.044095e+00 0.000000e+00 0.000000e+00
1
Step 350000
Ar 1.043079e+00 0.000000e+00 0.000000e+00
1
Step 351000
Ar 1.048049e+00 0.000000e+00 0.000000e+00
1
Step 352000
Ar 1.046850e+00 0.000000e+00 0.000000e+00
1
Step 353000
Ar 1.119639e+00 0.000000e+00 0.000000e+00
1
Step 354000
Ar 9.254942e-01 0.000000e+00 0.000000e+00
1
Step 355000
Ar 1.046242e+00 0.000000e+00 0.000000e+00
1
Step 356000
Ar 1.044600e+00 0.000000e+00 0.000000e+00
1
Step 357000
Ar 8.957017e-01 0.000000e+00 0.000000e+00
1
Step 358000
Ar 8.963384e-01 0.000000e+00 0.000000e+00
1
Step 359000
Ar 8.996027e-01 0.000000e+00 0.000000e+00
1
Step 360000
Ar 1.125641e+00 0.000000e+00 0.000000e+00
1
Step 361000
Ar 7.886934e-01 0.000000e+00 0.000000e+00
1
Step 362000
Ar 8.388755e-01 0.000000e+00 0.000000e+00
1
Step 363000
Ar 8.609245e-01 0.000000e+00 0.000000e+00
1
Step 364000
Ar 8.103427e-01 0.000000e+00 0.000000e+00
1
Step 365000
Ar 8.590550e-01 0.000000e+00 0.000000e+00
1
Step 366000
Ar 9.711607e-01 0.000000e+00 0.000000e+00
1
Step 367000
Ar 7.084850e-01 0.000000e+00 0.000000e+00
1
Step 368000
Ar 1.011107e+00 0.000000e+00 0.000000e+00
1
Step 369000
Ar 1.161258e+00 0.000000e+00 0.000000e+00
1
Step 370000
Ar 8.691892e-01 0.000000e+00 0.000000e+00
1
Step 371000
Ar 1.049975e+00 0.000000e+00 0.000000e+00
1
Step 372000
Ar 1.046969e+00 0.000000e+00 0.000000e+00
1
Step 373000
Ar 1.049570e+00 0.000000e+00 0.000000e+00
1
Step 374000
Ar 1.049177e+00 0.000000e+00 0.000000e+00
1
Step 375000
Ar 8.057719e-01 0.000000e+00 0.000000e+00
1
Step 376000
Ar 9.408682e-01 0.000000e+00 0.000000e+00
1
Step 377000
Ar 1.079454e+00 0.000000e+00 0.000000e+00
1
Step 378000
Ar 8.028235e-01 0.000000e+00 0.000000e+00
1
Step 379000
Ar 9.305861e-01 0.000000e+00 0.000000e+00
1
Step 380000
Ar 8.578964e-01 0.000000e+00 0.000000e+00
1
Step 381000
Ar 8.602847e-01 0.000000e+00 0.000000e+00
1
Step 382000
Ar 8.575648e-01 0.000000e+00 0.000000e+00
1
Step 383000
Ar 8.676787e-01 0.000000e+00 0.000000e+00
1
Step 384000
Ar 1.043473e+00 0.000000e+00 0.000000e+00
1
Step 385000
Ar 1.076250e+00 0.000000e+00 0.000000e+00
1
Step 386000
Ar 8.589718e-01 0.000000e+00 0.000000e+00
1
Step 387000
Ar 8.747791e-01 0.000000e+00 0.000000e+00
1
Step 388000
Ar 8.539611e-01 0.000000e+00 0.000000e+00
1
Step 389000
Ar 1.098986e+00 0.000000e+00 0.000000e+00
1
Step 390000
Ar 1.111979e+00 0.000000e+00 0.000000e+00
1
Step 391000
Ar 1.080381e+00 0.000000e+00 0.000000e+00
1
Step 392000
Ar 7.990988e-01 0.000000e+00 0.000000e+00
1
Step 393000
Ar 9.875622e-01 0.000000e+00 0.000000e+00
1
Step 394000
Ar 8.240804e-01 0.000000e+00 0.000000e+00
1
Step 395000
Ar 9.171749e-01 0.000000e+00 0.000000e+00
1
Step 396000
Ar 9.497539e-01 0.000000e+00 0.000000e+00
1
Step 397000
Ar 9.238199e-01 0.000000e+00 0.000000e+00
1
Step 398000
Ar 1.048032e+00 0.000000e+00 0.000000e+00
1
Step 399000
Ar 1.046929e+00 0.000000e+00 0.000000e+00
1
Step 400000
Ar 1.103495e+00 0.000000e+00 0.000000e+00
1
Step 401000
Ar 6.627104e-01 0.000000e+00 0.000000e+00
1
Step 402000
Ar 8.303738e-01 0.000000e+00 0.000000e+00
1
Step 403000
Ar 9.000696e-01 0.000000e+00 0.000000e+00
1
Step 404000
Ar 8.990141e-01 0.000000e+00 0.000000e+00
1
Step 405000
Ar 8.989257e-01 0.000000e+00 0.000000e+00
1
Step 406000
Ar 9.009058e-01 0.000000e+00 0.000000e+00
1
Step 407000
Ar 9.031676e-01 0.000000e+00 0.000000e+00
1
Step 408000
Ar 1.027766e+00 0.000000e+00 0.000000e+00
1
Step 409000
Ar 1.016567e+00 0.000000e+00 0.000000e+00
1
Step 410000
Ar 1.009180e+00 0.000000e+00 0.000000e+00
1
Step 411000
Ar 9.287302e-01 0.000000e+00 0.000000e+00
1
Step 412000
Ar 8.695418e-01 0.000000e+00 0.000000e+00
1
Step 413000
Ar 1.103493e+00 0.000000e+00 0.000000e+00
1
Step 414000
Ar 1.104228e+00 0.000000e+00 0.000000e+00
1
Step 415000
Ar 1.047411e+00 0.000000e+00 0.000000e+00
1
Step 416000
Ar 1.007857e+00 0.000000e+00 0.000000e+00
1
Step 417000
Ar 9.950241e-01 0.000000e+00 0.000000e+00
1
Step 418000
Ar 9.969485e-01 0.000000e+00 0.000000e+00
1
Step 419000
Ar 1.195801e+00 0.000000e+00 0.000000e+00
1
Step 420000
Ar 1.144359e+00 0.000000e+00 0.000000e+00
1
Step 421000
Ar 7.891402e-01 0.000000e+00 0.000000e+00
1
Step 422000
Ar 9.220145e-01 0.000000e+00 0.000000e+00
1
Step 423000
Ar 1.115640e+00 0.000000e+00 0.000000e+00
1
Step 424000
Ar 9.178063e-01 0.000000e+00 0.000000e+00
1
Step 425000
Ar 1.063754e+00 0.000000e+00 0.000000e+00
1
Step 426000
Ar 1.085867e+00 0.000000e+00 0.000000e+00
1
Step 427000
Ar 1.024117e+00 0.000000e+00 0.000000e+00
1
Step 428000
Ar 1.129559e+00 0.000000e+00 0.000000e+00
1
Step 429000
Ar 7.915858e-01 0.000000e+00 0.000000e+00
1
Step 430000
Ar 1.093856e+00 0.000000e+00 0.000000e+00
1
Step 431000
Ar 1.104173e+00 0.000000e+00 0.000000e+00
1
Step 432000
Ar 1.222279e+00 0.000000e+00 0.000000e+00
1
Step 433000
Ar 9.471257e-01 0.000000e+00 0.000000e+00
1
Step 434000
Ar 1.026695e+00 0.000000e+00 0.000000e+00
1
Step 435000
Ar 1.014065e+00 0.000000e+00 0.000000e+00
1
Step 436000
Ar 1.023802e+00 0.000000e+00 0.000000e+00
1
Step 437000
Ar 1.018528e+00 0.000000e+00 0.000000e+00
1
Step 438000
Ar 1.000914e+00 0.000000e+00 0.000000e+00
1
Step 439000
Ar 1.003163e+00 0.000000e+00 0.000000e+00
1
Step 440000
Ar 1.022134e+00 0.000000e+00 0.000000e+00
1
Step 441000
Ar 1.001624e+00 0.000000e+00 0.000000e+00
1
Step 442000
Ar 1.024716e+00 0.000000e+00 0.000000e+00
1
Step 443000
Ar 1.090134e+00 0.000000e+00 0.000000e+00
1
Step 444000
Ar 7.993005e-01 0.000000e+00 0.000000e+00
1
Step 445000
Ar 1.093403e+00 0.000000e+00 0.000000e+00
1
Step 446000
Ar 1.089599e+00 0.000000e+00 0.000000e+00
1
Step 447000
Ar 8.778135e-01 0.000000e+00 0.000000e+00
1
Step 448000
Ar 8.760646e-01 0.000000e+00 0.000000e+00
1
Step 449000
Ar 8.589707e-01 0.000000e+00 0.000000e+00
1
Step 450000
Ar 9.092543e-01 0.000000e+00 0.000000e+00
1
Step 451000
Ar 1.073754e+00 0.000000e+00 0.000000e+00
1
Step 452000
Ar 7.505860e-01 0.000000e+00 0.000000e+00
1
Step 453000
Ar 1.115236e+00 0.000000e+00 0.000000e+00
1
Step 454000
Ar 9.800177e-01 0.000000e+00 0.000000e+00
1
Step 455000
Ar 1.092155e+00 0.000000e+00 0.000000e+00
1
Step 456000
Ar 9.179762e-01 0.000000e+00 0.000000e+00
1
Step 457000
Ar 1.147354e+00 0.000000e+00 0.000000e+00
1
Step 458000
Ar 1.036945e+00 0.000000e+00 0.000000e+00
1
Step 459000
Ar 8.736849e-01 0.000000e+00 0.000000e+00
1
Step 460000
Ar 8.765254e-01 0.000000e+00 0.000000e+00
1
Step 461000
Ar 1.101513e+00 0.000000e+00 0.000000e+00
1
Step 462000
Ar 9.954605e-01 0.000000e+00 0.000000e+00
1
Step 463000
Ar 1.063407e+00 0.000000e+00 0.000000e+00
1
Step 464000
Ar 7.138456e-01 0.000000e+00 0.000000e+00
1
Step 465000
Ar 9.816968e-01 0.000000e+00 0.000000e+00
1
Step 466000
Ar 9.551809e-01 0.000000e+00 0.000000e+00
1
Step 467000
Ar 1.159986e+00 0.000000e+00 0.000000e+00
1
Step 468000
Ar 1.084739e+00 0.000000e+00 0.000000e+00
1
Step 469000
Ar 1.158804e+00 0.000000e+00 0.000000e+00
1
Step 470000
Ar 9.555183e-01 0.000000e+00 0.000000e+00
1
Step 471000
Ar 1.104644e+00 0.000000e+00 0.000000e+00
1
Step 472000
Ar 1.073863e+00 0.000000e+00 0.000000e+00
1
Step 473000
Ar 8.253752e-01 0.000000e+00 0.000000e+00
1
Step 474000
Ar 7.997629e-01 0.000000e+00 0.000000e+00
1
Step 475000
Ar 8.508168e-01 0.000000e+00 0.000000e+00
1
Step 476000
Ar 9.528027e-01 0.000000e+00 0.000000e+00
1
Step 477000
Ar 7.372052e-01 0.000000e+00 0.000000e+00
1
Step 478000
Ar 9.979864e-01 0.000000e+00 0.000000e+00
1
Step 479000
Ar 9.974531e-01 0.000000e+00 0.000000e+00
1
Step 480000
Ar 1.098484e+00 0.000000e+00 0.000000e+00
1
Step 481000
Ar 8.885562e-01 0.000000e+00 0.000000e+00
1
Step 482000
Ar 6.927765e-01 0.000000e+00 0.000000e+00
1
Step 483000
Ar 8.563782e-01 0.000000e+00 0.000000e+00
1
Step 484000
Ar 9.112235e-01 0.000000e+00 0.000000e+00
1
Step 485000
Ar 9.441425e-01 0.000000e+00 0.000000e+00
1
Step 486000
Ar 8.531841e-01 0.000000e+00 0.000000e+00
1
Step 487000
Ar 1.021150e+00 0.000000e+00 0.000000e+00
1
Step 488000
Ar 9.001896e-01 0.000000e+00 0.000000e+00
1
Step 489000
Ar 1.019869e+00 0.000000e+00 0.000000e+00
1
Step 490000
Ar 9.951003e-01 0.000000e+00 0.000000e+00
1
Step 491000
Ar 9.803293e-01 0.000000e+00 0.000000e+00
1
Step 492000
Ar 1.208405e+00 0.000000e+00 0.000000e+00
1
Step 493000
Ar 8.340694e-01 0.000000e+00 0.000000e+00
1
Step 494000
Ar 6.289245e-01 0.000000e+00 0.000000e+00
1
Step 495000
Ar 1.123204e+00 0.000000e+00 0.000000e+00
1
Step 496000
Ar 1.069589e+00 0.000000e+00 0.000000e+00
1
Step 497000
Ar 7.293880e-01 0.000000e+00 0.000000e+00
1
Step 498000
Ar 1.201133e+00 0.000000e+00 0.000000e+00
1
Step 499000
Ar 1.263701e+00 0.000000e+00 0.000000e+00
1
Step 500000
Ar 8.477790e-01 0.000000e+00 0.000000e+00
1
Step 501000
Ar 7.371282e-01 0.000000e+00 0.000000e+00
1
Step 502000
Ar 8.790858e-01 0.000000e+00 0.000000e+00
1
Step 503000
Ar 1.001455e+00 0.000000e+00 0.000000e+00
1
Step 504000
Ar 9.587258e-01 0.000000e+00 0.000000e+00
1
Step 505000
Ar 1.118200e+00 0.000000e+00 0.000000e+00
1
Step 506000
Ar 1.232121e+00 0.000000e+00 0.000000e+00
1
Step 507000
Ar 8.334399e-01 0.000000e+00 0.000000e+00
1
Step 508000
Ar 7.772874e-01 0.000000e+00 0.000000e+00
1
Step 509000
Ar 1.113843e+00 0.000000e+00 0.000000e+00
1
Step 510000
Ar 1.082896e+00 0.000000e+00 0.000000e+00
1
Step 511000
Ar 1.041303e+00 0.000000e+00 0.000000e+00
1
Step 512000
Ar 9.247966e-01 0.000000e+00 0.000000e+00
1
Step 513000
Ar 1.054684e+00 0.000000e+00 0.000000e+00
1
Step 514000
Ar 9.447192e-01 0.000000e+00 0.000000e+00
1
Step 515000
Ar 1.105504e+00 0.000000e+00 0.000000e+00
1
Step 516000
Ar 1.103539e+00 0.000000e+00 0.000000e+00
1
Step 517000
Ar 1.106860e+00 0.000000e+00 0.000000e+00
1
Step 518000
Ar 8.241378e-01 0.000000e+00 0.000000e+00
1
Step 519000
Ar 7.704898e-01 0.000000e+00 0.000000e+00
1
Step 520000
Ar 1.000484e+00 0.000000e+00 0.000000e+00
1
Step 521000
Ar 7.888738e-01 0.000000e+00 0.000000e+00
1
Step 522000
Ar 1.137796e+00 0.000000e+00 0.000000e+00
1
Step 523000
Ar 1.002329e+00 0.000000e+00 0.000000e+00
1
Step 524000
Ar 8.291780e-01 0.000000e+00 0.000000e+00
1
Step 525000
Ar 7.244629e-01 0.000000e+00 0.000000e+00
1
Step 526000
Ar 1.022201e+00 0.000000e+00 0.000000e+00
1
Step 527000
Ar 9.833096e-01 0.000000e+00 0.000000e+00
1
Step 528000
Ar 9.358507e-01 0.000000e+00 0.000000e+00
1
Step 529000
Ar 9.026601e-01 0.000000e+00 0.000000e+00
1
Step 530000
Ar 1.161449e+00 0.000000e+00 0.000000e+00
1
Step 531000
Ar 7.066586e-01 0.000000e+00 0.000000e+00
1
Step 532000
Ar 8.435047e-01 0.000000e+00 0.000000e+00
1
Step 533000
Ar 8.690933e-01 0.000000e+00 0.000000e+00
1
Step 534000
Ar 8.481907e-01 0.000000e+00 0.000000e+00
1
Step 535000
Ar 8.449230e-01 0.000000e+00 0.000000e+00
1
Step 536000
Ar 8.445942e-01 0.000000e+00 0.000000e+00
1
Step 537000
Ar 8.416897e-01 0.000000e+00 0.000000e+00
1
Step 538000
Ar 7.856437e-01 0.000000e+00 0.000000e+00
1
Step 539000
Ar 9.237067e-01 0.000000e+00 0.000000e+00
1
Step 540000
Ar 8.442202e-01 0.000000e+00 0.000000e+00
1
Step 541000
Ar 8.480973e-01 0.000000e+00 0.000000e+00
1
Step 542000
Ar 8.665771e-01 0.000000e+00 0.000000e+00
1
Step 543000
Ar 1.067548e+00 0.000000e+00 0.000000e+00
1
Step 544000
Ar 7.629682e-01 0.000000e+00 0.000000e+00
1
Step 545000
Ar 1.001074e+00 0.000000e+00 0.000000e+00
1
Step 546000
Ar 8.129248e-01 0.000000e+00 0.000000e+00
1
Step 547000
Ar 1.020346e+00 0.000000e+00 0.000000e+00
1
Step 548000
Ar 7.244663e-01 0.000000e+00 0.000000e+00
1
Step 549000
Ar 8.083345e-01 0.000000e+00 0.000000e+00
1
Step 550000
Ar 9.996986e-01 0.000000e+00 0.000000e+00
1
Step 551000
Ar 6.197377e-01 0.000000e+00 0.000000e+00
1
Step 552000
Ar 8.794857e-01 0.000000e+00 0.000000e+00
1
Step 553000
Ar 1.078034e+00 0.000000e+00 0.000000e+00
1
Step 554000
Ar 9.047040e-01 0.000000e+00 0.000000e+00
1
Step 555000
Ar 9.278084e-01 0.000000e+00 0.000000e+00
1
Step 556000
Ar 1.025767e+00 0.000000e+00 0.000000e+00
1
Step 557000
Ar 1.107660e+00 0.000000e+00 0.000000e+00
1
Step 558000
Ar 8.657770e-01 0.000000e+00 0.000000e+00
1
Step 559000
Ar 1.108496e+00 0.000000e+00 0.000000e+00
1
Step 560000
Ar 1.102607e+00 0.000000e+00 0.000000e+00
1
Step 561000
Ar 9.640332e-01 0.000000e+00 0.000000e+00
1
Step 562000
Ar 1.147916e+00 0.000000e+00 0.000000e+00
1
Step 563000
Ar 7.434337e-01 0.000000e+00 0.000000e+00
1
Step 564000
Ar 9.586533e-01 0.000000e+00 0.000000e+00
1
Step 565000
Ar 1.137223e+00 0.000000e+00 0.000000e+00
1
Step 566000
Ar 8.647410e-01 0.000000e+00 0.000000e+00
1
Step 567000
Ar -1.074910e+00 0.000000e+00 0.000000e+00
1
Step 568000
Ar -1.020373e+00 0.000000e+00 0.000000e+00
1
Step 569000
Ar -1.006431e+00 0.000000e+00 0.000000e+00
1
Step 570000
Ar -9.922350e-01 0.000000e+00 0.000000e+00
1
Step 571000
Ar -9.878340e-01 0.000000e+00 0.000000e+00
1
Step 572000
Ar -1.016320e+00 0.000000e+00 0.000000e+00
1
Step 573000
Ar -1.003502e+00 0.000000e+00 0.000000e+00
1
Step 574000
Ar -1.010207e+00 0.000000e+00 0.000000e+00
1
Step 575000
Ar -1.004933e+00 0.000000e+00 0.000000e+00
1
Step 576000
Ar -9.981678e-01 0.000000e+00 0.000000e+00
1
Step 577000
Ar -1.025465e+00 0.000000e+00 0.000000e+00
1
Step 578000
Ar -1.008482e+00 0.000000e+00 0.000000e+00
1
Step 579000
Ar -1.003682e+00 0.000000e+00 0.000000e+00
1
Step 580000
Ar -1.002954e+00 0.000000e+00 0.000000e+00
1
Step 581000
Ar -1.022871e+00 0.000000e+00 0.000000e+00
1
Step 582000
Ar -1.006463e+00 0.000000e+00 0.000000e+00
1
Step 583000
Ar -1.018391e+00 0.000000e+00 0.000000e+00
1
Step 584000
Ar -1.010409e+00 0.000000e+00 0.000000e+00
1
Step 585000
Ar -1.007805e+00 0.000000e+00 0.000000e+00
1
Step 586000
Ar -1.012270e+00 0.000000e+00 0.000000e+00
1
Step 587000
Ar -9.793766e-01 0.000000e+00 0.000000e+00
1
Step 588000
Ar -9.808310e-01 0.000000e+00 0.000000e+00
1
Step 589000
Ar -9.795476e-01 0.000000e+00 0.000000e+00
1
Step 590000
Ar -9.848923e-01 0.000000e+00 0.000000e+00
1
Step 591000
Ar -1.020646e+00 0.000000e+00 0.000000e+00
1
Step 592000
Ar -1.026266e+00 0.000000e+00 0.000000e+00
1
Step 593000
Ar -9.525646e-01 0.000000e+00 0.000000e+00
1
Step 594000
Ar -9.515251e-01 0.000000e+00 0.000000e+00
1
Step 595000
Ar -1.034024e+00 0.000000e+00 0.000000e+00
1
Step 596000
Ar -1.033445e+00 0.000000e+00 0.000000e+00
1
Step 597000
Ar -1.040984e+00 0.000000e+00 0.000000e+00
1
Step 598000
Ar -1.035199e+00 0.000000e+00 0.000000e+00
1
Step 599000
Ar -1.033613e+00 0.000000e+00 0.000000e+00
1
Step 600000
Ar -1.034447e+00 0.000000e+00 0.000000e+00
1
Step 601000
Ar -1.044391e+00 0.000000e+00 0.000000e+00
1
Step 602000
Ar -1.030431e+00 0.000000e+00 0.000000e+00
1
Step 603000
Ar -1.038350e+00 0.000000e+00 0.000000e+00
1
Step 604000
Ar -1.031532e+00 0.000000e+00 0.000000e+00
1
Step 605000
Ar -1.035011e+00 0.000000e+00 0.000000e+00
1
Step 606000
Ar -1.037634e+00 0.000000e+00 0.000000e+00
1
Step 607000
Ar -1.044552e+00 0.000000e+00 0.000000e+00
1
Step 608000
Ar -1.036242e+00 0.000000e+00 0.000000e+00
1
Step 609000
Ar -1.072192e+00 0.000000e+00 0.000000e+00
1
Step 610000
Ar -1.001910e+00 0.000000e+00 0.000000e+00
1
Step 611000
Ar -1.054878e+00 0.000000e+00 0.000000e+00
1
Step 612000
Ar -1.054732e+00 0.000000e+00 0.000000e+00
1
Step 613000
Ar -1.052414e+00 0.000000e+00 0.000000e+00
1
Step 614000
Ar -1.049816e+00 0.000000e+00 0.000000e+00
1
Step 615000
Ar -1.059861e+00 0.000000e+00 0.000000e+00
1
Step 616000
Ar -1.014738e+00 0.000000e+00 0.000000e+00
1
Step 617000
Ar -9.765897e-01 0.000000e+00 0.000000e+00
1
Step 618000
Ar -9.723104e-01 0.000000e+00 0.000000e+00
1
Step 619000
Ar -1.001212e+00 0.000000e+00 0.000000e+00
1
Step 620000
Ar -9.726547e-01 0.000000e+00 0.000000e+00
1
Step 621000
Ar -9.705291e-01 0.000000e+00 0.000000e+00
1
Step 622000
Ar -9.697517e-01 0.000000e+00 0.000000e+00
1
Step 623000
Ar -9.727171e-01 0.000000e+00 0.000000e+00
1
Step 624000
Ar -1.013375e+00 0.000000e+00 0.000000e+00
1
Step 625000
Ar -9.688744e-01 0.000000e+00 0.000000e+00
1
Step 626000
Ar -9.711721e-01 0.000000e+00 0.000000e+00
1
Step 627000
Ar -1.000508e+00 0.000000e+00 0.000000e+00
1
Step 628000
Ar -1.007869e+00 0.000000e+00 0.000000e+00
1
Step 629000
Ar -1.001026e+00 0.000000e+00 0.000000e+00
1
Step 630000
Ar -1.018653e+00 0.000000e+00 0.000000e+00
1
Step 631000
Ar -1.034537e+00 0.000000e+00 0.000000e+00
1
Step 632000
Ar -9.720869e-01 0.000000e+00 0.000000e+00
1
Step 633000
Ar -9.463323e-01 0.000000e+00 0.000000e+00
1
Step 634000
Ar -9.202238e-01 0.000000e+00 0.000000e+00
1
Step 635000
Ar -9.223330e-01 0.000000e+00 0.000000e+00
1
Step 636000
Ar -9.879336e-01 0.000000e+00 0.000000e+00
1
Step 637000
Ar -1.065343e+00 0.000000e+00 0.000000e+00
1
Step 638000
Ar -1.064842e+00 0.000000e+00 0.000000e+00
1
Step 639000
Ar -1.062452e+00 0.000000e+00 0.000000e+00
1
Step 640000
Ar -1.063997e+00 0.000000e+00 0.000000e+00
1
Step 641000
Ar -1.013147e+00 0.000000e+00 0.000000e+00
1
Step 642000
Ar -1.062182e+00 0.000000e+00 0.000000e+00
1
Step 643000
Ar -1.066182e+00 0.000000e+00 0.000000e+00
1
Step 644000
Ar -1.068039e+00 0.000000e+00 0.000000e+00
1
Step 645000
Ar -1.065540e+00 0.000000e+00 0.000000e+00
1
Step 646000
Ar -9.482387e-01 0.000000e+00 0.000000e+00
1
Step 647000
Ar -9.090935e-01 0.000000e+00 0.000000e+00
1
Step 648000
Ar -9.107341e-01 0.000000e+00 0.000000e+00
1
Step 649000
Ar -9.104589e-01 0.000000e+00 0.000000e+00
1
Step 650000
Ar -9.746455e-01 0.000000e+00 0.000000e+00
1
Step 651000
Ar -9.308131e-01 0.000000e+00 0.000000e+00
1
Step 652000
Ar -9.768027e-01 0.000000e+00 0.000000e+00
1
Step 653000
Ar -8.648317e-01 0.000000e+00 0.000000e+00
1