1
Step 0
Ar 4.989989e+00 0.000000e+00 0.000000e+00
1
Step 1000
Ar 4.347326e+00 0.000000e+00 0.000000e+00
1
Step 2000
Ar 2.826230e+00 0.000000e+00 0.000000e+00
1
Step 3000
Ar 7.340584e-01 0.000000e+00 0.000000e+00
1
Step 4000
Ar -1.506439e+00 0.000000e+00 0.000000e+00
1
Step 5000
Ar -3.442541e+00 0.000000e+00 0.000000e+00
1
Step 6000
Ar -4.683034e+00 0.000000e+00 0.000000e+00
1
Step 7000
Ar -4.977260e+00 0.000000e+00 0.000000e+00
1
Step 8000
Ar -4.265768e+00 0.000000e+00 0.000000e+00
1
Step 9000
Ar -2.692323e+00 0.000000e+00 0.000000e+00
1
Step 10000
Ar -5.748591e-01 0.000000e+00 0.000000e+00
1
Step 11000
Ar 1.658762e+00 0.000000e+00 0.000000e+00
1
Step 12000
Ar 3.557209e+00 0.000000e+00 0.000000e+00
1
Step 13000
Ar 4.736877e+00 0.000000e+00 0.000000e+00
1
Step 14000
Ar 4.959398e+00 0.000000e+00 0.000000e+00
1
Step 15000
Ar 4.179810e+00 0.000000e+00 0.000000e+00
1
Step 16000
Ar 2.555638e+00 0.000000e+00 0.000000e+00
1
Step 17000
Ar 4.150669e-01 0.000000e+00 0.000000e+00
1
Step 18000
Ar -1.809374e+00 0.000000e+00 0.000000e+00
1
Step 19000
Ar -3.668207e+00 0.000000e+00 0.000000e+00
1
Step 20000
Ar -4.785833e+00 0.000000e+00 0.000000e+00
1
Step 21000
Ar -4.936420e+00 0.000000e+00 0.000000e+00
1
Step 22000
Ar -4.089541e+00 0.000000e+00 0.000000e+00
1
Step 23000
Ar -2.416318e+00 0.000000e+00 0.000000e+00
1
Step 24000
Ar -2.548466e-01 0.000000e+00 0.000000e+00
1
Step 25000
Ar 1.958119e+00 0.000000e+00 0.000000e+00
1
Step 26000
Ar 3.775422e+00 0.000000e+00 0.000000e+00
1
Step 27000
Ar 4.829853e+00 0.000000e+00 0.000000e+00
1
Step 28000
Ar 4.908351e+00 0.000000e+00 0.000000e+00
1
Step 29000
Ar 3.995053e+00 0.000000e+00 0.000000e+00
1
Step 30000
Ar 2.274505e+00 0.000000e+00 0.000000e+00
1
Step 31000
Ar 9.436339e-02 0.000000e+00 0.000000e+00
1
Step 32000
Ar -2.104845e+00 0.000000e+00 0.000000e+00
1
Step 33000
Ar -3.878743e+00 0.000000e+00 0.000000e+00
1
Step 34000
Ar -4.868892e+00 0.000000e+00 0.000000e+00
1
Step 35000
Ar -4.875218e+00 0.000000e+00 0.000000e+00
1
Step 36000
Ar -3.896445e+00 0.000000e+00 0.000000e+00
1
Step 37000
Ar -2.130346e+00 0.000000e+00 0.000000e+00
1
Step 38000
Ar 6.621714e-02 0.000000e+00 0.000000e+00
1
Step 39000
Ar 2.249400e+00 0.000000e+00 0.000000e+00
1
Step 40000
Ar 3.978063e+00 0.000000e+00 0.000000e+00
1
Step 41000
Ar 4.902908e+00 0.000000e+00 0.000000e+00
1
Step 42000
Ar 4.837058e+00 0.000000e+00 0.000000e+00
1
Step 43000
Ar 3.793818e+00 0.000000e+00 0.000000e+00
1
Step 44000
Ar 1.983990e+00 0.000000e+00 0.000000e+00
1
Step 45000
Ar -2.267294e-01 0.000000e+00 0.000000e+00
1
Step 46000
Ar -2.391635e+00 0.000000e+00 0.000000e+00
1
Step 47000
Ar -4.073280e+00 0.000000e+00 0.000000e+00
1
Step 48000
Ar -4.931867e+00 0.000000e+00 0.000000e+00
1
Step 49000
Ar -4.793908e+00 0.000000e+00 0.000000e+00
1
Step 50000
Ar -3.687278e+00 0.000000e+00 0.000000e+00
1
Step 51000
Ar -1.835587e+00 0.000000e+00 0.000000e+00
1
Step 52000
Ar 3.870077e-01 0.000000e+00 0.000000e+00
1
Step 53000
Ar 2.531403e+00 0.000000e+00 0.000000e+00
1
Step 54000
Ar 4.164295e+00 0.000000e+00 0.000000e+00
1
Step 55000
Ar 4.955739e+00 0.000000e+00 0.000000e+00
1
Step 56000
Ar 4.745813e+00 0.000000e+00 0.000000e+00
1
Step 57000
Ar 3.576935e+00 0.000000e+00 0.000000e+00
1
Step 58000
Ar 1.685291e+00 0.000000e+00 0.000000e+00
1
Step 59000
Ar -5.468869e-01 0.000000e+00 0.000000e+00
1
Step 60000
Ar -2.668560e+00 0.000000e+00 0.000000e+00
1
Step 61000
Ar -4.251016e+00 0.000000e+00 0.000000e+00
1
Step 62000
Ar -4.974500e+00 0.000000e+00 0.000000e+00
1
Step 63000
Ar -4.692823e+00 0.000000e+00 0.000000e+00
1
Step 64000
Ar -3.462902e+00 0.000000e+00 0.000000e+00
1
Step 65000
Ar -1.533257e+00 0.000000e+00 0.000000e+00
1
Step 66000
Ar 7.062020e-01 0.000000e+00 0.000000e+00
1
Step 67000
Ar 2.802964e+00 0.000000e+00 0.000000e+00
1
Step 68000
Ar 4.333351e+00 0.000000e+00 0.000000e+00
1
Step 69000
Ar 4.988130e+00 0.000000e+00 0.000000e+00
1
Step 70000
Ar 4.634993e+00 0.000000e+00 0.000000e+00
1
Step 71000
Ar 3.345297e+00 0.000000e+00 0.000000e+00
1
Step 72000
Ar 1.379641e+00 0.000000e+00 0.000000e+00
1
Step 73000
Ar -8.647887e-01 0.000000e+00 0.000000e+00
1
Step 74000
Ar -2.934477e+00 0.000000e+00 0.000000e+00
1
Step 75000
Ar -4.411217e+00 0.000000e+00 0.000000e+00
1
Step 76000
Ar -4.996614e+00 0.000000e+00 0.000000e+00
1
Step 77000
Ar -4.572382e+00 0.000000e+00 0.000000e+00
1
Step 78000
Ar -3.224242e+00 0.000000e+00 0.000000e+00
1
Step 79000
Ar -1.224602e+00 0.000000e+00 0.000000e+00
1
Step 80000
Ar 1.022483e+00 0.000000e+00 0.000000e+00
1
Step 81000
Ar 3.062963e+00 0.000000e+00 0.000000e+00
1
Step 82000
Ar 4.484533e+00 0.000000e+00 0.000000e+00
1
Step 83000
Ar 4.999945e+00 0.000000e+00 0.000000e+00
1
Step 84000
Ar 4.505055e+00 0.000000e+00 0.000000e+00
1
Step 85000
Ar 3.099861e+00 0.000000e+00 0.000000e+00
1
Step 86000
Ar 1.068301e+00 0.000000e+00 0.000000e+00
1
Step 87000
Ar -1.179123e+00 0.000000e+00 0.000000e+00
1
Step 88000
Ar -3.188291e+00 0.000000e+00 0.000000e+00
1
Step 89000
Ar -4.553223e+00 0.000000e+00 0.000000e+00
1
Step 90000
Ar -4.998119e+00 0.000000e+00 0.000000e+00
1
Step 91000
Ar -4.433081e+00 0.000000e+00 0.000000e+00
1
Step 92000
Ar -2.972283e+00 0.000000e+00 0.000000e+00
1
Step 93000
Ar -9.108968e-01 0.000000e+00 0.000000e+00
1
Step 94000
Ar 1.334547e+00 0.000000e+00 0.000000e+00
1
Step 95000
Ar 3.310329e+00 0.000000e+00 0.000000e+00
1
Step 96000
Ar 4.617217e+00 0.000000e+00 0.000000e+00
1
Step 97000
Ar 4.991137e+00 0.000000e+00 0.000000e+00
1
Step 98000
Ar 4.356535e+00 0.000000e+00 0.000000e+00
1
Step 99000
Ar 2.841639e+00 0.000000e+00 0.000000e+00
