1
Step 120000
Ar 8.569697e-01 0.000000e+00 0.000000e+00
1
Step 121000
Ar 1.079283e+00 0.000000e+00 0.000000e+00
1
Step 122000
Ar 1.144276e+00 0.000000e+00 0.000000e+00
1
Step 123000
Ar 7.627226e-01 0.000000e+00 0.000000e+00
1
Step 124000
Ar 8.560335e-01 0.000000e+00 0.000000e+00
1
Step 125000
Ar 1.154156e+00 0.000000e+00 0.000000e+00
1
Step 126000
Ar 1.223811e+00 0.000000e+00 0.000000e+00
1
Step 127000
Ar 1.163691e+00 0.000000e+00 0.000000e+00
1
Step 128000
Ar 1.177302e+00 0.000000e+00 0.000000e+00
1
Step 129000
Ar 1.188839e+00 0.000000e+00 0.000000e+00
1
Step 130000
Ar 1.194129e+00 0.000000e+00 0.000000e+00
1
Step 131000
Ar 1.238183e+00 0.000000e+00 0.000000e+00
1
Step 132000
Ar 8.447098e-01 0.000000e+00 0.000000e+00
1
Step 133000
Ar 8.421810e-01 0.000000e+00 0.000000e+00
1
Step 134000
Ar 1.134657e+00 0.000000e+00 0.000000e+00
1
Step 135000
Ar 9.818232e-01 0.000000e+00 0.000000e+00
1
Step 136000
Ar 7.373153e-01 0.000000e+00 0.000000e+00
1
Step 137000
Ar 1.122077e+00 0.000000e+00 0.000000e+00
1
Step 138000
Ar 1.038047e+00 0.000000e+00 0.000000e+00
1
Step 139000
Ar 1.102324e+00 0.000000e+00 0.000000e+00
1
Step 140000
Ar 1.368104e+00 0.000000e+00 0.000000e+00
1
Step 141000
Ar 1.376501e+00 0.000000e+00 0.000000e+00
1
Step 142000
Ar 1.183079e+00 0.000000e+00 0.000000e+00
1
Step 143000
Ar 7.045678e-01 0.000000e+00 0.000000e+00
1
Step 144000
Ar 9.815171e-01 0.000000e+00 0.000000e+00
1
Step 145000
Ar 1.007893e+00 0.000000e+00 0.000000e+00
1
Step 146000
Ar 6.180078e-01 0.000000e+00 0.000000e+00
1
Step 147000
Ar 6.338092e-01 0.000000e+00 0.000000e+00
1
Step 148000
Ar 6.831799e-01 0.000000e+00 0.000000e+00
1
Step 149000
Ar 5.821753e-01 0.000000e+00 0.000000e+00
1
Step 150000
Ar 6.751456e-01 0.000000e+00 0.000000e+00
1
Step 151000
Ar 6.937872e-01 0.000000e+00 0.000000e+00
1
Step 152000
Ar 6.096879e-01 0.000000e+00 0.000000e+00
1
Step 153000
Ar -1.109367e+00 0.000000e+00 0.000000e+00
1
Step 154000
Ar -6.827412e-01 0.000000e+00 0.000000e+00
1
Step 155000
Ar -5.737658e-01 0.000000e+00 0.000000e+00
1
Step 156000
Ar -7.513719e-01 0.000000e+00 0.000000e+00
1
Step 157000
Ar -7.747868e-01 0.000000e+00 0.000000e+00
1
Step 158000
Ar -8.219319e-01 0.000000e+00 0.000000e+00
1
Step 159000
Ar -8.104783e-01 0.000000e+00 0.000000e+00
1
Step 160000
Ar -8.187543e-01 0.000000e+00 0.000000e+00
1
Step 161000
Ar -9.155759e-01 0.000000e+00 0.000000e+00
1
Step 162000
Ar -9.625805e-01 0.000000e+00 0.000000e+00
1
Step 163000
Ar -9.268603e-01 0.000000e+00 0.000000e+00
1
Step 164000
Ar -1.061071e+00 0.000000e+00 0.000000e+00
1
Step 165000
Ar -1.094228e+00 0.000000e+00 0.000000e+00
1
Step 166000
Ar -9.745207e-01 0.000000e+00 0.000000e+00
1
Step 167000
Ar -9.673820e-01 0.000000e+00 0.000000e+00
1
Step 168000
Ar -1.053726e+00 0.000000e+00 0.000000e+00
1
Step 169000
Ar -1.027338e+00 0.000000e+00 0.000000e+00
1
Step 170000
Ar -9.807101e-01 0.000000e+00 0.000000e+00
1
Step 171000
Ar -1.114070e+00 0.000000e+00 0.000000e+00
1
Step 172000
Ar -1.199964e+00 0.000000e+00 0.000000e+00
1
Step 173000
Ar -9.942177e-01 0.000000e+00 0.000000e+00
1
Step 174000
Ar -1.080367e+00 0.000000e+00 0.000000e+00
1
Step 175000
Ar -1.130067e+00 0.000000e+00 0.000000e+00
1
Step 176000
Ar -1.191547e+00 0.000000e+00 0.000000e+00
1
Step 177000
Ar -9.940688e-01 0.000000e+00 0.000000e+00
1
Step 178000
Ar -1.013025e+00 0.000000e+00 0.000000e+00
1
Step 179000
Ar -1.009286e+00 0.000000e+00 0.000000e+00
1
Step 180000
Ar -1.147066e+00 0.000000e+00 0.000000e+00
1
Step 181000
Ar -1.149805e+00 0.000000e+00 0.000000e+00
1
Step 182000
Ar -1.014988e+00 0.000000e+00 0.000000e+00
1
Step 183000
Ar -8.917369e-01 0.000000e+00 0.000000e+00
1
Step 184000
Ar -8.383581e-01 0.000000e+00 0.000000e+00
1
Step 185000
Ar -9.191587e-01 0.000000e+00 0.000000e+00
1
Step 186000
Ar -1.118572e+00 0.000000e+00 0.000000e+00
1
Step 187000
Ar -1.002409e+00 0.000000e+00 0.000000e+00
1
Step 188000
Ar -9.771743e-01 0.000000e+00 0.000000e+00
1
Step 189000
Ar -9.837442e-01 0.000000e+00 0.000000e+00
1
Step 190000
Ar -9.835300e-01 0.000000e+00 0.000000e+00
1
Step 191000
Ar -1.003433e+00 0.000000e+00 0.000000e+00
1
Step 192000
Ar -1.033906e+00 0.000000e+00 0.000000e+00
1
Step 193000
Ar -9.940425e-01 0.000000e+00 0.000000e+00
1
Step 194000
Ar -1.011971e+00 0.000000e+00 0.000000e+00
1
Step 195000
Ar -8.209146e-01 0.000000e+00 0.000000e+00
1
Step 196000
Ar -9.180408e-01 0.000000e+00 0.000000e+00
1
Step 197000
Ar -9.418814e-01 0.000000e+00 0.000000e+00
1
Step 198000
Ar -8.405516e-01 0.000000e+00 0.000000e+00
1
Step 199000
Ar -1.217817e+00 0.000000e+00 0.000000e+00
1
Step 200000
Ar -1.097340e+00 0.000000e+00 0.000000e+00
1
Step 201000
Ar -1.083275e+00 0.000000e+00 0.000000e+00
1
Step 202000
Ar -1.205456e+00 0.000000e+00 0.000000e+00
1
Step 203000
Ar -1.102651e+00 0.000000e+00 0.000000e+00
1
Step 204000
Ar -1.245225e+00 0.000000e+00 0.000000e+00
1
Step 205000
Ar -1.172634e+00 0.000000e+00 0.000000e+00
1
Step 206000
Ar -1.170447e+00 0.000000e+00 0.000000e+00
1
Step 207000
Ar -1.193289e+00 0.000000e+00 0.000000e+00
1
Step 208000
Ar -1.130703e+00 0.000000e+00 0.000000e+00
1
Step 209000
Ar -1.129195e+00 0.000000e+00 0.000000e+00
1
Step 210000
Ar -1.086220e+00 0.000000e+00 0.000000e+00
1
Step 211000
Ar -1.092411e+00 0.000000e+00 0.000000e+00
1
Step 212000
Ar -1.139393e+00 0.000000e+00 0.000000e+00
1
Step 213000
Ar -1.068205e+00 0.000000e+00 0.000000e+00
1
Step 214000
Ar -1.171557e+00 0.000000e+00 0.000000e+00
1
Step 215000
Ar -1.143011e+00 0.000000e+00 0.000000e+00
1
Step 216000
Ar -1.306748e+00 0.000000e+00 0.000000e+00
1
Step 217000
Ar -1.159221e+00 0.000000e+00 0.000000e+00
1
Step 218000
Ar -1.067974e+00 0.000000e+00 0.000000e+00
1
Step 219000
Ar -1.055552e+00 0.000000e+00 0.000000e+00
1
Step 220000
Ar -1.225301e+00 0.000000e+00 0.000000e+00
1
Step 221000
Ar -1.250748e+00 0.000000e+00 0.000000e+00
1
Step 222000
Ar -1.155935e+00 0.000000e+00 0.000000e+00
1
Step 223000
Ar -1.171587e+00 0.000000e+00 0.000000e+00
1
Step 224000
Ar -1.172675e+00 0.000000e+00 0.000000e+00
1
Step 225000
Ar -1.060349e+00 0.000000e+00 0.000000e+00
1
Step 226000
Ar -1.060354e+00 0.000000e+00 0.000000e+00
1
Step 227000
Ar -1.056962e+00 0.000000e+00 0.000000e+00
1
Step 228000
Ar -1.128345e+00 0.000000e+00 0.000000e+00
1
Step 229000
Ar -1.128753e+00 0.000000e+00 0.000000e+00
1
Step 230000
Ar -8.968496e-01 0.000000e+00 0.000000e+00
1
Step 231000
Ar -8.754358e-01 0.000000e+00 0.000000e+00
1
Step 232000
Ar -8.842015e-01 0.000000e+00 0.000000e+00
1
Step 233000
Ar -1.030999e+00 0.000000e+00 0.000000e+00
1
Step 234000
Ar -1.013984e+00 0.000000e+00 0.000000e+00
1
Step 235000
Ar -1.007797e+00 0.000000e+00 0.000000e+00
1
Step 236000
Ar -9.807456e-01 0.000000e+00 0.000000e+00
1
Step 237000
Ar -9.832526e-01 0.000000e+00 0.000000e+00
1
Step 238000
Ar -9.844478e-01 0.000000e+00 0.000000e+00
1
Step 239000
Ar -1.003078e+00 0.000000e+00 0.000000e+00
1
Step 240000
Ar -1.334437e+00 0.000000e+00 0.000000e+00
1
Step 241000
Ar -1.220582e+00 0.000000e+00 0.000000e+00
1
Step 242000
Ar -1.229118e+00 0.000000e+00 0.000000e+00
1
Step 243000
Ar -1.237482e+00 0.000000e+00 0.000000e+00
1
Step 244000
Ar -1.324057e+00 0.000000e+00 0.000000e+00
1
Step 245000
Ar -1.233674e+00 0.000000e+00 0.000000e+00
1
Step 246000
Ar -1.230357e+00 0.000000e+00 0.000000e+00
1
Step 247000
Ar -1.214859e+00 0.000000e+00 0.000000e+00
1
Step 248000
Ar -1.236861e+00 0.000000e+00 0.000000e+00
1
Step 249000
Ar -1.215935e+00 0.000000e+00 0.000000e+00
1
Step 250000
Ar -1.274521e+00 0.000000e+00 0.000000e+00
1
Step 251000
Ar -1.082522e+00 0.000000e+00 0.000000e+00
1
Step 252000
Ar -1.080650e+00 0.000000e+00 0.000000e+00
1
Step 253000
Ar -1.040664e+00 0.000000e+00 0.000000e+00
1
Step 254000
Ar -1.121364e+00 0.000000e+00 0.000000e+00
1
Step 255000
Ar -1.081345e+00 0.000000e+00 0.000000e+00
1
Step 256000
Ar -1.095227e+00 0.000000e+00 0.000000e+00
1
Step 257000
Ar -1.104007e+00 0.000000e+00 0.000000e+00
1
Step 258000
Ar -1.101341e+00 0.000000e+00 0.000000e+00
1
Step 259000
Ar -1.108303e+00 0.000000e+00 0.000000e+00
1
Step 260000
Ar -1.099280e+00 0.000000e+00 0.000000e+00
1
Step 261000
Ar -1.096735e+00 0.000000e+00 0.000000e+00
1
Step 262000
Ar -1.100412e+00 0.000000e+00 0.000000e+00
1
Step 263000
Ar -1.103252e+00 0.000000e+00 0.000000e+00
1
Step 264000
Ar -1.100877e+00 0.000000e+00 0.000000e+00
1
Step 265000
Ar -1.092804e+00 0.000000e+00 0.000000e+00
1
Step 266000
Ar -1.164421e+00 0.000000e+00 0.000000e+00
1
Step 267000
Ar -1.191872e+00 0.000000e+00 0.000000e+00
1
Step 268000
Ar -1.182560e+00 0.000000e+00 0.000000e+00
1
Step 269000
Ar -1.167585e+00 0.000000e+00 0.000000e+00
1
Step 270000
Ar -1.184187e+00 0.000000e+00 0.000000e+00
1
Step 271000
Ar -1.163041e+00 0.000000e+00 0.000000e+00
1
Step 272000
Ar -1.105543e+00 0.000000e+00 0.000000e+00
1
Step 273000
Ar -1.100407e+00 0.000000e+00 0.000000e+00
1
Step 274000
Ar -1.102930e+00 0.000000e+00 0.000000e+00
1
Step 275000
Ar -1.106079e+00 0.000000e+00 0.000000e+00
1
Step 276000
Ar -1.330269e+00 0.000000e+00 0.000000e+00
1
Step 277000
Ar -1.282116e+00 0.000000e+00 0.000000e+00
1
Step 278000
Ar -1.215596e+00 0.000000e+00 0.000000e+00
1
Step 279000
Ar -1.213360e+00 0.000000e+00 0.000000e+00
1
Step 280000
Ar -1.248781e+00 0.000000e+00 0.000000e+00
1
Step 281000
Ar -1.260687e+00 0.000000e+00 0.000000e+00
1
Step 282000
Ar -1.305054e+00 0.000000e+00 0.000000e+00
1
Step 283000
Ar -1.258149e+00 0.000000e+00 0.000000e+00
1
Step 284000
Ar -1.259218e+00 0.000000e+00 0.000000e+00
1
Step 285000
Ar -1.191237e+00 0.000000e+00 0.000000e+00
1
Step 286000
Ar -1.198657e+00 0.000000e+00 0.000000e+00
1
Step 287000
Ar -1.194423e+00 0.000000e+00 0.000000e+00
1
Step 288000
Ar -1.195100e+00 0.000000e+00 0.000000e+00
1
Step 289000
Ar -1.080208e+00 0.000000e+00 0.000000e+00
1
Step 290000
Ar -1.192267e+00 0.000000e+00 0.000000e+00
1
Step 291000
Ar -1.202186e+00 0.000000e+00 0.000000e+00
1
Step 292000
Ar -1.194416e+00 0.000000e+00 0.000000e+00
1
Step 293000
Ar -1.196243e+00 0.000000e+00 0.000000e+00
1
Step 294000
Ar -1.195032e+00 0.000000e+00 0.000000e+00
1
Step 295000
Ar -1.194673e+00 0.000000e+00 0.000000e+00
1
Step 296000
Ar -1.194728e+00 0.000000e+00 0.000000e+00
1
Step 297000
Ar -1.196441e+00 0.000000e+00 0.000000e+00
1
Step 298000
Ar -1.096844e+00 0.000000e+00 0.000000e+00
1
Step 299000
Ar -1.088679e+00 0.000000e+00 0.000000e+00
1
Step 300000
Ar -1.082781e+00 0.000000e+00 0.000000e+00
1
Step 301000
Ar -1.169098e+00 0.000000e+00 0.000000e+00
1
Step 302000
Ar -1.194882e+00 0.000000e+00 0.000000e+00
1
Step 303000
Ar -1.191468e+00 0.000000e+00 0.000000e+00
1
Step 304000
Ar -1.162650e+00 0.000000e+00 0.000000e+00
1
Step 305000
Ar -1.199738e+00 0.000000e+00 0.000000e+00
1
Step 306000
Ar -1.196487e+00 0.000000e+00 0.000000e+00
1
Step 307000
Ar -1.195788e+00 0.000000e+00 0.000000e+00
1
Step 308000
Ar -1.270402e+00 0.000000e+00 0.000000e+00
1
Step 309000
Ar -1.292228e+00 0.000000e+00 0.000000e+00
1
Step 310000
Ar -1.272275e+00 0.000000e+00 0.000000e+00
1
Step 311000
Ar -1.257077e+00 0.000000e+00 0.000000e+00
1
Step 312000
Ar -1.289020e+00 0.000000e+00 0.000000e+00
1
Step 313000
Ar -1.338222e+00 0.000000e+00 0.000000e+00
1
Step 314000
Ar -1.140076e+00 0.000000e+00 0.000000e+00
1
Step 315000
Ar -1.094551e+00 0.000000e+00 0.000000e+00
1
Step 316000
Ar -1.145964e+00 0.000000e+00 0.000000e+00
1
Step 317000
Ar -1.095176e+00 0.000000e+00 0.000000e+00
1
Step 318000
Ar -1.087591e+00 0.000000e+00 0.000000e+00
1
Step 319000
Ar -1.095946e+00 0.000000e+00 0.000000e+00
1
Step 320000
Ar -1.165507e+00 0.000000e+00 0.000000e+00
1
Step 321000
Ar -1.095186e+00 0.000000e+00 0.000000e+00
1
Step 322000
Ar -1.094763e+00 0.000000e+00 0.000000e+00
1
Step 323000
Ar -1.085095e+00 0.000000e+00 0.000000e+00
1
Step 324000
Ar -1.081872e+00 0.000000e+00 0.000000e+00
1
Step 325000
Ar -8.782290e-01 0.000000e+00 0.000000e+00
1
Step 326000
Ar -8.855888e-01 0.000000e+00 0.000000e+00
1
Step 327000
Ar -8.906346e-01 0.000000e+00 0.000000e+00
1
Step 328000
Ar -8.876148e-01 0.000000e+00 0.000000e+00
1
Step 329000
Ar -9.955743e-01 0.000000e+00 0.000000e+00
1
Step 330000
Ar -8.024323e-01 0.000000e+00 0.000000e+00
1
Step 331000
Ar -1.007460e+00 0.000000e+00 0.000000e+00
1
Step 332000
Ar -9.898600e-01 0.000000e+00 0.000000e+00
1
Step 333000
Ar -9.787687e-01 0.000000e+00 0.000000e+00
1
Step 334000
Ar -1.005541e+00 0.000000e+00 0.000000e+00
1
Step 335000
Ar -9.795722e-01 0.000000e+00 0.000000e+00
1
Step 336000
Ar -9.993982e-01 0.000000e+00 0.000000e+00
1
Step 337000
Ar -9.447846e-01 0.000000e+00 0.000000e+00
1
Step 338000
Ar -1.134551e+00 0.000000e+00 0.000000e+00
1
Step 339000
Ar -1.108550e+00 0.000000e+00 0.000000e+00
1
Step 340000
Ar -1.117773e+00 0.000000e+00 0.000000e+00
1
Step 341000
Ar -1.125920e+00 0.000000e+00 0.000000e+00
1
Step 342000
Ar -1.175138e+00 0.000000e+00 0.000000e+00
1
Step 343000
Ar -7.794882e-01 0.000000e+00 0.000000e+00
1
Step 344000
Ar -7.770552e-01 0.000000e+00 0.000000e+00
1
Step 345000
Ar -7.762017e-01 0.000000e+00 0.000000e+00
1
Step 346000
Ar -7.695665e-01 0.000000e+00 0.000000e+00
1
Step 347000
Ar -7.721809e-01 0.000000e+00 0.000000e+00
1
Step 348000
Ar -7.736982e-01 0.000000e+00 0.000000e+00
1
Step 349000
Ar -7.689881e-01 0.000000e+00 0.000000e+00
1
Step 350000
Ar -7.785684e-01 0.000000e+00 0.000000e+00
1
Step 351000
Ar -7.861366e-01 0.000000e+00 0.000000e+00
1
Step 352000
Ar -4.813378e-01 0.000000e+00 0.000000e+00
1
Step 353000
Ar -1.649047e-01 0.000000e+00 0.000000e+00
1
Step 354000
Ar -7.690677e-01 0.000000e+00 0.000000e+00
1
Step 355000
Ar -4.477901e-01 0.000000e+00 0.000000e+00
1
Step 356000
Ar -6.524607e-01 0.000000e+00 0.000000e+00
1
Step 357000
Ar -5.368047e-01 0.000000e+00 0.000000e+00
1
Step 358000
Ar -7.965065e-01 0.000000e+00 0.000000e+00
1
Step 359000
Ar -7.842307e-01 0.000000e+00 0.000000e+00
1
Step 360000
Ar -7.436173e-01 0.000000e+00 0.000000e+00
1
Step 361000
Ar -7.745732e-01 0.000000e+00 0.000000e+00
1
Step 362000
Ar -7.674936e-01 0.000000e+00 0.000000e+00
1
Step 363000
Ar -7.283039e-01 0.000000e+00 0.000000e+00
1
Step 364000
Ar -7.316084e-01 0.000000e+00 0.000000e+00
1
Step 365000
Ar -7.476497e-01 0.000000e+00 0.000000e+00
1
Step 366000
Ar -7.320467e-01 0.000000e+00 0.000000e+00
1
Step 367000
Ar -7.307749e-01 0.000000e+00 0.000000e+00
1
Step 368000
Ar -9.259454e-01 0.000000e+00 0.000000e+00
1
Step 369000
Ar -9.783670e-01 0.000000e+00 0.000000e+00
1
Step 370000
Ar -8.932212e-01 0.000000e+00 0.000000e+00
1
Step 371000
Ar -8.646172e-01 0.000000e+00 0.000000e+00
1
Step 372000
Ar -1.001485e+00 0.000000e+00 0.000000e+00
1
Step 373000
Ar -5.718458e-01 0.000000e+00 0.000000e+00
1
Step 374000
Ar -6.780033e-01 0.000000e+00 0.000000e+00
1
Step 375000
Ar -6.760692e-01 0.000000e+00 0.000000e+00
1
Step 376000
Ar -6.696988e-01 0.000000e+00 0.000000e+00
1
Step 377000
Ar -6.714671e-01 0.000000e+00 0.000000e+00
1
Step 378000
Ar -6.837386e-01 0.000000e+00 0.000000e+00
1
Step 379000
Ar -6.784131e-01 0.000000e+00 0.000000e+00
1
Step 380000
Ar -6.759116e-01 0.000000e+00 0.000000e+00
1
Step 381000
Ar -6.187064e-01 0.000000e+00 0.000000e+00
1
Step 382000
Ar -5.187141e-01 0.000000e+00 0.000000e+00
1
Step 383000
Ar -6.240290e-01 0.000000e+00 0.000000e+00
1
Step 384000
Ar -5.837257e-01 0.000000e+00 0.000000e+00
1
Step 385000
Ar -1.168317e+00 0.000000e+00 0.000000e+00
1
Step 386000
Ar -1.164614e+00 0.000000e+00 0.000000e+00
1
Step 387000
Ar -7.608071e-01 0.000000e+00 0.000000e+00
1
Step 388000
Ar -7.278357e-01 0.000000e+00 0.000000e+00
1
Step 389000
Ar -7.356420e-01 0.000000e+00 0.000000e+00
1
Step 390000
Ar -7.349077e-01 0.000000e+00 0.000000e+00
1
Step 391000
Ar -7.376908e-01 0.000000e+00 0.000000e+00
1
Step 392000
Ar -7.369715e-01 0.000000e+00 0.000000e+00
1
Step 393000
Ar -7.324586e-01 0.000000e+00 0.000000e+00
1
Step 394000
Ar -7.686016e-01 0.000000e+00 0.000000e+00
1
Step 395000
Ar -7.760837e-01 0.000000e+00 0.000000e+00
1
Step 396000
Ar -7.651068e-01 0.000000e+00 0.000000e+00
1
Step 397000
Ar -6.617221e-01 0.000000e+00 0.000000e+00
1
Step 398000
Ar -6.725974e-01 0.000000e+00 0.000000e+00
1
Step 399000
Ar -6.556535e-01 0.000000e+00 0.000000e+00
1
Step 400000
Ar -7.172825e-01 0.000000e+00 0.000000e+00
1
Step 401000
Ar -6.682361e-01 0.000000e+00 0.000000e+00
1
Step 402000
Ar -6.315543e-01 0.000000e+00 0.000000e+00
1
Step 403000
Ar -5.826661e-01 0.000000e+00 0.000000e+00
1
Step 404000
Ar -5.848395e-01 0.000000e+00 0.000000e+00
1
Step 405000
Ar -6.267915e-01 0.000000e+00 0.000000e+00
1
Step 406000
Ar -4.204410e-01 0.000000e+00 0.000000e+00
1
Step 407000
Ar -3.007932e-01 0.000000e+00 0.000000e+00
1
Step 408000
Ar -1.691531e-01 0.000000e+00 0.000000e+00
1
Step 409000
Ar -4.134673e-01 0.000000e+00 0.000000e+00
1
Step 410000
Ar -4.680311e-01 0.000000e+00 0.000000e+00
1
Step 411000
Ar -4.535247e-01 0.000000e+00 0.000000e+00
1
Step 412000
Ar -2.501594e-01 0.000000e+00 0.000000e+00
1
Step 413000
Ar 4.581316e-01 0.000000e+00 0.000000e+00
1
Step 414000
Ar 5.167087e-01 0.000000e+00 0.000000e+00
1
Step 415000
Ar 5.178848e-01 0.000000e+00 0.000000e+00
1
Step 416000
Ar 3.604304e-01 0.000000e+00 0.000000e+00
1
Step 417000
Ar 5.287093e-01 0.000000e+00 0.000000e+00
1
Step 418000
Ar 5.176677e-01 0.000000e+00 0.000000e+00
1
Step 419000
Ar 4.722762e-01 0.000000e+00 0.000000e+00
1
Step 420000
Ar 4.795413e-01 0.000000e+00 0.000000e+00
1
Step 421000
Ar 3.967435e-01 0.000000e+00 0.000000e+00
1
Step 422000
Ar 4.159161e-01 0.000000e+00 0.000000e+00
1
Step 423000
Ar 4.735021e-01 0.000000e+00 0.000000e+00
1
Step 424000
Ar 4.753673e-01 0.000000e+00 0.000000e+00
1
Step 425000
Ar 4.422131e-01 0.000000e+00 0.000000e+00
1
Step 426000
Ar 6.948494e-01 0.000000e+00 0.000000e+00
1
Step 427000
Ar 6.579194e-01 0.000000e+00 0.000000e+00
1
Step 428000
Ar 6.345648e-01 0.000000e+00 0.000000e+00
1
Step 429000
Ar 7.228673e-01 0.000000e+00 0.000000e+00
1
Step 430000
Ar 6.993330e-01 0.000000e+00 0.000000e+00
1
Step 431000
Ar 7.195920e-01 0.000000e+00 0.000000e+00
1
Step 432000
Ar 7.343359e-01 0.000000e+00 0.000000e+00
1
Step 433000
Ar 6.990215e-01 0.000000e+00 0.000000e+00
1
Step 434000
Ar 9.634820e-01 0.000000e+00 0.000000e+00
1
Step 435000
Ar 9.306525e-01 0.000000e+00 0.000000e+00
1
Step 436000
Ar 1.003890e+00 0.000000e+00 0.000000e+00
1
Step 437000
Ar 9.019257e-01 0.000000e+00 0.000000e+00
1
Step 438000
Ar 9.390711e-01 0.000000e+00 0.000000e+00
1
Step 439000
Ar 1.006051e+00 0.000000e+00 0.000000e+00
1
Step 440000
Ar 8.735942e-01 0.000000e+00 0.000000e+00
1
Step 441000
Ar 8.553766e-01 0.000000e+00 0.000000e+00
1
Step 442000
Ar 9.512026e-01 0.000000e+00 0.000000e+00
1
Step 443000
Ar 8.587503e-01 0.000000e+00 0.000000e+00
1
Step 444000
Ar 8.761203e-01 0.000000e+00 0.000000e+00
1
Step 445000
Ar 8.672581e-01 0.000000e+00 0.000000e+00
1
Step 446000
Ar 8.875528e-01 0.000000e+00 0.000000e+00
1
Step 447000
Ar 9.458722e-01 0.000000e+00 0.000000e+00
1
Step 448000
Ar 9.466506e-01 0.000000e+00 0.000000e+00
1
Step 449000
Ar 8.619383e-01 0.000000e+00 0.000000e+00
1
Step 450000
Ar 8.036986e-01 0.000000e+00 0.000000e+00
1
Step 451000
Ar 7.684824e-01 0.000000e+00 0.000000e+00
1
Step 452000
Ar 8.130690e-01 0.000000e+00 0.000000e+00
1
Step 453000
Ar 8.791739e-01 0.000000e+00 0.000000e+00
1
Step 454000
Ar 8.593059e-01 0.000000e+00 0.000000e+00
1
Step 455000
Ar 9.910301e-01 0.000000e+00 0.000000e+00
1
Step 456000
Ar 9.503108e-01 0.000000e+00 0.000000e+00
1
Step 457000
Ar 1.006463e+00 0.000000e+00 0.000000e+00
1
Step 458000
Ar 1.072959e+00 0.000000e+00 0.000000e+00
1
Step 459000
Ar 1.099841e+00 0.000000e+00 0.000000e+00
1
Step 460000
Ar 1.067043e+00 0.000000e+00 0.000000e+00
1
Step 461000
Ar 1.028145e+00 0.000000e+00 0.000000e+00
1
Step 462000
Ar 1.093578e+00 0.000000e+00 0.000000e+00
1
Step 463000
Ar 1.072527e+00 0.000000e+00 0.000000e+00
1
Step 464000
Ar 1.051251e+00 0.000000e+00 0.000000e+00
1
Step 465000
Ar 1.010903e+00 0.000000e+00 0.000000e+00
1
Step 466000
Ar 9.403765e-01 0.000000e+00 0.000000e+00
1
Step 467000
Ar 9.066712e-01 0.000000e+00 0.000000e+00
1
Step 468000
Ar 9.155620e-01 0.000000e+00 0.000000e+00
1
Step 469000
Ar 9.077066e-01 0.000000e+00 0.000000e+00
1
Step 470000
Ar 8.263866e-01 0.000000e+00 0.000000e+00
1
Step 471000
Ar 8.272684e-01 0.000000e+00 0.000000e+00
1
Step 472000
Ar 8.355168e-01 0.000000e+00 0.000000e+00
1
Step 473000
Ar 8.258986e-01 0.000000e+00 0.000000e+00
1
Step 474000
Ar 8.349201e-01 0.000000e+00 0.000000e+00
1
Step 475000
Ar 8.278714e-01 0.000000e+00 0.000000e+00
1
Step 476000
Ar 7.985896e-01 0.000000e+00 0.000000e+00
1
Step 477000
Ar 7.836513e-01 0.000000e+00 0.000000e+00
1
Step 478000
Ar 7.756482e-01 0.000000e+00 0.000000e+00
1
Step 479000
Ar 9.888030e-01 0.000000e+00 0.000000e+00
1
Step 480000
Ar 9.985545e-01 0.000000e+00 0.000000e+00
1
Step 481000
Ar 9.798198e-01 0.000000e+00 0.000000e+00
1
Step 482000
Ar 9.874368e-01 0.000000e+00 0.000000e+00
1
Step 483000
Ar 9.709106e-01 0.000000e+00 0.000000e+00
1
Step 484000
Ar 9.746815e-01 0.000000e+00 0.000000e+00
1
Step 485000
Ar 9.729173e-01 0.000000e+00 0.000000e+00
1
Step 486000
Ar 9.658981e-01 0.000000e+00 0.000000e+00
1
Step 487000
Ar 9.620539e-01 0.000000e+00 0.000000e+00
1
Step 488000
Ar 9.797231e-01 0.000000e+00 0.000000e+00
1
Step 489000
Ar 9.721744e-01 0.000000e+00 0.000000e+00
1
Step 490000
Ar 9.785868e-01 0.000000e+00 0.000000e+00
1
Step 491000
Ar 9.740588e-01 0.000000e+00 0.000000e+00
1
Step 492000
Ar 9.646846e-01 0.000000e+00 0.000000e+00
1
Step 493000
Ar 9.755454e-01 0.000000e+00 0.000000e+00
1
Step 494000
Ar 1.103722e+00 0.000000e+00 0.000000e+00
1
Step 495000
Ar 1.059061e+00 0.000000e+00 0.000000e+00
1
Step 496000
Ar 1.083779e+00 0.000000e+00 0.000000e+00
1
Step 497000
Ar 1.010701e+00 0.000000e+00 0.000000e+00
1
Step 498000
Ar 1.012608e+00 0.000000e+00 0.000000e+00
1
Step 499000
Ar 1.008763e+00 0.000000e+00 0.000000e+00
1
Step 500000
Ar 8.836578e-01 0.000000e+00 0.000000e+00
1
Step 501000
Ar 8.521862e-01 0.000000e+00 0.000000e+00
1
Step 502000
Ar 8.601687e-01 0.000000e+00 0.000000e+00
1
Step 503000
Ar 8.601076e-01 0.000000e+00 0.000000e+00
1
Step 504000
Ar 8.558047e-01 0.000000e+00 0.000000e+00
1
Step 505000
Ar 8.583875e-01 0.000000e+00 0.000000e+00
1
Step 506000
Ar 9.743690e-01 0.000000e+00 0.000000e+00
1
Step 507000
Ar 1.010143e+00 0.000000e+00 0.000000e+00
1
Step 508000
Ar 8.599128e-01 0.000000e+00 0.000000e+00
1
Step 509000
Ar 8.597567e-01 0.000000e+00 0.000000e+00
1
Step 510000
Ar 9.644187e-01 0.000000e+00 0.000000e+00
1
Step 511000
Ar 9.751933e-01 0.000000e+00 0.000000e+00
1
Step 512000
Ar 9.636801e-01 0.000000e+00 0.000000e+00
1
Step 513000
Ar 9.745991e-01 0.000000e+00 0.000000e+00
1
Step 514000
Ar 9.644531e-01 0.000000e+00 0.000000e+00
1
Step 515000
Ar 9.731274e-01 0.000000e+00 0.000000e+00
1
Step 516000
Ar 9.721750e-01 0.000000e+00 0.000000e+00
1
Step 517000
Ar 9.807193e-01 0.000000e+00 0.000000e+00
1
Step 518000
Ar 9.674218e-01 0.000000e+00 0.000000e+00
1
Step 519000
Ar 9.867081e-01 0.000000e+00 0.000000e+00
1
Step 520000
Ar 9.818260e-01 0.000000e+00 0.000000e+00
1
Step 521000
Ar 1.026492e+00 0.000000e+00 0.000000e+00
1
Step 522000
Ar 9.382335e-01 0.000000e+00 0.000000e+00
1
Step 523000
Ar 9.366253e-01 0.000000e+00 0.000000e+00
1
Step 524000
Ar 9.396928e-01 0.000000e+00 0.000000e+00
1
Step 525000
Ar 9.477249e-01 0.000000e+00 0.000000e+00
1
Step 526000
Ar 9.424907e-01 0.000000e+00 0.000000e+00
1
Step 527000
Ar 9.448843e-01 0.000000e+00 0.000000e+00
1
Step 528000
Ar 9.021718e-01 0.000000e+00 0.000000e+00
1
Step 529000
Ar 1.100454e+00 0.000000e+00 0.000000e+00
1
Step 530000
Ar 1.077097e+00 0.000000e+00 0.000000e+00
1
Step 531000
Ar 1.089558e+00 0.000000e+00 0.000000e+00
1
Step 532000
Ar 8.920444e-01 0.000000e+00 0.000000e+00
1
Step 533000
Ar 9.082122e-01 0.000000e+00 0.000000e+00
1
Step 534000
Ar 9.466281e-01 0.000000e+00 0.000000e+00
1
Step 535000
Ar 9.383151e-01 0.000000e+00 0.000000e+00
1
Step 536000
Ar 9.742777e-01 0.000000e+00 0.000000e+00
1
Step 537000
Ar 1.030570e+00 0.000000e+00 0.000000e+00
1
Step 538000
Ar 9.419402e-01 0.000000e+00 0.000000e+00
1
Step 539000
Ar 9.429119e-01 0.000000e+00 0.000000e+00
1
Step 540000
Ar 8.623505e-01 0.000000e+00 0.000000e+00
1
Step 541000
Ar 9.416564e-01 0.000000e+00 0.000000e+00
1
Step 542000
Ar 1.251798e+00 0.000000e+00 0.000000e+00
1
Step 543000
Ar 1.201233e+00 0.000000e+00 0.000000e+00
1
Step 544000
Ar 1.112019e+00 0.000000e+00 0.000000e+00
1
Step 545000
Ar 1.109713e+00 0.000000e+00 0.000000e+00
1
Step 546000
Ar 1.117645e+00 0.000000e+00 0.000000e+00
1
Step 547000
Ar 1.170152e+00 0.000000e+00 0.000000e+00
1
Step 548000
Ar 1.117092e+00 0.000000e+00 0.000000e+00
1
Step 549000
Ar 9.042641e-01 0.000000e+00 0.000000e+00
1
Step 550000
Ar 9.010539e-01 0.000000e+00 0.000000e+00
1
Step 551000
Ar 8.770665e-01 0.000000e+00 0.000000e+00
1
Step 552000
Ar 9.373374e-01 0.000000e+00 0.000000e+00
1
Step 553000
Ar 9.398069e-01 0.000000e+00 0.000000e+00
1
Step 554000
Ar 6.481342e-01 0.000000e+00 0.000000e+00
1
Step 555000
Ar 6.713161e-01 0.000000e+00 0.000000e+00
1
Step 556000
Ar 6.405842e-01 0.000000e+00 0.000000e+00
1
Step 557000
Ar 6.483643e-01 0.000000e+00 0.000000e+00
1
Step 558000
Ar 6.667109e-01 0.000000e+00 0.000000e+00
1
Step 559000
Ar 6.514659e-01 0.000000e+00 0.000000e+00
1
Step 560000
Ar 6.474887e-01 0.000000e+00 0.000000e+00
1
Step 561000
Ar 6.492103e-01 0.000000e+00 0.000000e+00
1
Step 562000
Ar 7.750425e-01 0.000000e+00 0.000000e+00
1
Step 563000
Ar 7.735343e-01 0.000000e+00 0.000000e+00
1
Step 564000
Ar 7.663115e-01 0.000000e+00 0.000000e+00
1
Step 565000
Ar 7.956679e-01 0.000000e+00 0.000000e+00
1
Step 566000
Ar 1.029429e+00 0.000000e+00 0.000000e+00
1
Step 567000
Ar 9.763675e-01 0.000000e+00 0.000000e+00
1
Step 568000
Ar 1.249374e+00 0.000000e+00 0.000000e+00
1
Step 569000
Ar 1.289456e+00 0.000000e+00 0.000000e+00
1
Step 570000
Ar 1.269275e+00 0.000000e+00 0.000000e+00
1
Step 571000
Ar 1.271992e+00 0.000000e+00 0.000000e+00
1
Step 572000
Ar 1.111946e+00 0.000000e+00 0.000000e+00
1
Step 573000
Ar 1.087614e+00 0.000000e+00 0.000000e+00
1
Step 574000
Ar 1.090443e+00 0.000000e+00 0.000000e+00
1
Step 575000
Ar 1.092099e+00 0.000000e+00 0.000000e+00
1
Step 576000
Ar 1.089918e+00 0.000000e+00 0.000000e+00
1
Step 577000
Ar 1.248941e+00 0.000000e+00 0.000000e+00
1
Step 578000
Ar 1.293750e+00 0.000000e+00 0.000000e+00
1
Step 579000
Ar 1.221879e+00 0.000000e+00 0.000000e+00
1
Step 580000
Ar 1.231893e+00 0.000000e+00 0.000000e+00
1
Step 581000
Ar 1.214144e+00 0.000000e+00 0.000000e+00
1
Step 582000
Ar 1.255241e+00 0.000000e+00 0.000000e+00
1
Step 583000
Ar 1.204867e+00 0.000000e+00 0.000000e+00
1
Step 584000
Ar 1.254760e+00 0.000000e+00 0.000000e+00
1
Step 585000
Ar 1.213915e+00 0.000000e+00 0.000000e+00
1
Step 586000
Ar 1.207193e+00 0.000000e+00 0.000000e+00
1
Step 587000
Ar 1.223554e+00 0.000000e+00 0.000000e+00
1
Step 588000
Ar 1.239349e+00 0.000000e+00 0.000000e+00
1
Step 589000
Ar 1.268320e+00 0.000000e+00 0.000000e+00
1
Step 590000
Ar 1.230908e+00 0.000000e+00 0.000000e+00
1
Step 591000
Ar 1.243909e+00 0.000000e+00 0.000000e+00
1
Step 592000
Ar 1.265325e+00 0.000000e+00 0.000000e+00
1
Step 593000
Ar 1.293826e+00 0.000000e+00 0.000000e+00
1
Step 594000
Ar 1.293253e+00 0.000000e+00 0.000000e+00
1
Step 595000
Ar 1.270910e+00 0.000000e+00 0.000000e+00
1
Step 596000
Ar 1.269368e+00 0.000000e+00 0.000000e+00
1
Step 597000
Ar 1.281393e+00 0.000000e+00 0.000000e+00
1
Step 598000
Ar 1.288391e+00 0.000000e+00 0.000000e+00
1
Step 599000
Ar 1.110303e+00 0.000000e+00 0.000000e+00
1
Step 600000
Ar 1.181161e+00 0.000000e+00 0.000000e+00
1
Step 601000
Ar 1.181070e+00 0.000000e+00 0.000000e+00
1
Step 602000
Ar 1.065148e+00 0.000000e+00 0.000000e+00
1
Step 603000
Ar 1.259929e+00 0.000000e+00 0.000000e+00
1
Step 604000
Ar 1.259880e+00 0.000000e+00 0.000000e+00
1
Step 605000
Ar 1.284028e+00 0.000000e+00 0.000000e+00
1
Step 606000
Ar 1.080927e+00 0.000000e+00 0.000000e+00
1
Step 607000
Ar 1.111526e+00 0.000000e+00 0.000000e+00
1
Step 608000
Ar 1.161715e+00 0.000000e+00 0.000000e+00
1
Step 609000
Ar 1.291049e+00 0.000000e+00 0.000000e+00
1
Step 610000
Ar 1.109560e+00 0.000000e+00 0.000000e+00
1
Step 611000
Ar 1.182891e+00 0.000000e+00 0.000000e+00
1
Step 612000
Ar 1.182529e+00 0.000000e+00 0.000000e+00
1
Step 613000
Ar 1.180041e+00 0.000000e+00 0.000000e+00
1
Step 614000
Ar 1.183343e+00 0.000000e+00 0.000000e+00
1
Step 615000
Ar 1.162632e+00 0.000000e+00 0.000000e+00
1
Step 616000
Ar 1.129520e+00 0.000000e+00 0.000000e+00
1
Step 617000
Ar 1.145326e+00 0.000000e+00 0.000000e+00
1
Step 618000
Ar 1.133794e+00 0.000000e+00 0.000000e+00
1
Step 619000
Ar 1.254113e+00 0.000000e+00 0.000000e+00
1
Step 620000
Ar 1.284569e+00 0.000000e+00 0.000000e+00
1
Step 621000
Ar 1.285873e+00 0.000000e+00 0.000000e+00
1
Step 622000
Ar 1.273872e+00 0.000000e+00 0.000000e+00
1
Step 623000
Ar 1.238399e+00 0.000000e+00 0.000000e+00
1
Step 624000
Ar 1.141845e+00 0.000000e+00 0.000000e+00
1
Step 625000
Ar 1.056305e+00 0.000000e+00 0.000000e+00
1
Step 626000
Ar 1.042551e+00 0.000000e+00 0.000000e+00
1
Step 627000
Ar 1.115291e+00 0.000000e+00 0.000000e+00
1
Step 628000
Ar 1.119506e+00 0.000000e+00 0.000000e+00
1
Step 629000
Ar 1.145393e+00 0.000000e+00 0.000000e+00
1
Step 630000
Ar 1.124280e+00 0.000000e+00 0.000000e+00
1
Step 631000
Ar 1.147651e+00 0.000000e+00 0.000000e+00
1
Step 632000
Ar 1.040244e+00 0.000000e+00 0.000000e+00
1
Step 633000
Ar 1.038684e+00 0.000000e+00 0.000000e+00
1
Step 634000
Ar 1.216738e+00 0.000000e+00 0.000000e+00
1
Step 635000
Ar 1.181098e+00 0.000000e+00 0.000000e+00
1
Step 636000
Ar 1.254572e+00 0.000000e+00 0.000000e+00
1
Step 637000
Ar 1.283430e+00 0.000000e+00 0.000000e+00
1
Step 638000
Ar 1.293601e+00 0.000000e+00 0.000000e+00
1
Step 639000
Ar 1.289490e+00 0.000000e+00 0.000000e+00
1
Step 640000
Ar 1.249258e+00 0.000000e+00 0.000000e+00
1
Step 641000
Ar 1.215080e+00 0.000000e+00 0.000000e+00
1
Step 642000
Ar 1.338491e+00 0.000000e+00 0.000000e+00
1
Step 643000
Ar 1.341829e+00 0.000000e+00 0.000000e+00
1
Step 644000
Ar 1.321801e+00 0.000000e+00 0.000000e+00
1
Step 645000
Ar 1.221039e+00 0.000000e+00 0.000000e+00
1
Step 646000
Ar 1.212369e+00 0.000000e+00 0.000000e+00
1
Step 647000
Ar 1.320637e+00 0.000000e+00 0.000000e+00
1
Step 648000
Ar 1.310337e+00 0.000000e+00 0.000000e+00
1
Step 649000
Ar 1.320631e+00 0.000000e+00 0.000000e+00
1
Step 650000
Ar 1.315704e+00 0.000000e+00 0.000000e+00
1