1
Step 120000
Ar 1.064144e+00 0.000000e+00 0.000000e+00
1
Step 121000
Ar 9.055000e-01 0.000000e+00 0.000000e+00
1
Step 122000
Ar 8.039420e-01 0.000000e+00 0.000000e+00
1
Step 123000
Ar 1.028911e+00 0.000000e+00 0.000000e+00
1
Step 124000
Ar 9.758905e-01 0.000000e+00 0.000000e+00
1
Step 125000
Ar 8.825489e-01 0.000000e+00 0.000000e+00
1
Step 126000
Ar 1.058251e+00 0.000000e+00 0.000000e+00
1
Step 127000
Ar 1.201640e+00 0.000000e+00 0.000000e+00
1
Step 128000
Ar 1.058029e+00 0.000000e+00 0.000000e+00
1
Step 129000
Ar 1.077923e+00 0.000000e+00 0.000000e+00
1
Step 130000
Ar 9.673706e-01 0.000000e+00 0.000000e+00
1
Step 131000
Ar 9.065419e-01 0.000000e+00 0.000000e+00
1
Step 132000
Ar 9.354244e-01 0.000000e+00 0.000000e+00
1
Step 133000
Ar 8.980631e-01 0.000000e+00 0.000000e+00
1
Step 134000
Ar 9.507525e-01 0.000000e+00 0.000000e+00
1
Step 135000
Ar 9.143743e-01 0.000000e+00 0.000000e+00
1
Step 136000
Ar 9.470234e-01 0.000000e+00 0.000000e+00
1
Step 137000
Ar 9.256004e-01 0.000000e+00 0.000000e+00
1
Step 138000
Ar 9.413842e-01 0.000000e+00 0.000000e+00
1
Step 139000
Ar 9.273880e-01 0.000000e+00 0.000000e+00
1
Step 140000
Ar 9.470418e-01 0.000000e+00 0.000000e+00
1
Step 141000
Ar 1.134905e+00 0.000000e+00 0.000000e+00
1
Step 142000
Ar 1.138503e+00 0.000000e+00 0.000000e+00
1
Step 143000
Ar 1.129284e+00 0.000000e+00 0.000000e+00
1
Step 144000
Ar 1.006134e+00 0.000000e+00 0.000000e+00
1
Step 145000
Ar 1.085984e+00 0.000000e+00 0.000000e+00
1
Step 146000
Ar 1.164069e+00 0.000000e+00 0.000000e+00
1
Step 147000
Ar 1.130584e+00 0.000000e+00 0.000000e+00
1
Step 148000
Ar 1.132704e+00 0.000000e+00 0.000000e+00
1
Step 149000
Ar 1.100004e+00 0.000000e+00 0.000000e+00
1
Step 150000
Ar 1.190133e+00 0.000000e+00 0.000000e+00
1
Step 151000
Ar 1.313799e+00 0.000000e+00 0.000000e+00
1
Step 152000
Ar 1.206913e+00 0.000000e+00 0.000000e+00
1
Step 153000
Ar 1.259359e+00 0.000000e+00 0.000000e+00
1
Step 154000
Ar 1.213947e+00 0.000000e+00 0.000000e+00
1
Step 155000
Ar 1.228258e+00 0.000000e+00 0.000000e+00
1
Step 156000
Ar 1.258956e+00 0.000000e+00 0.000000e+00
1
Step 157000
Ar 1.291326e+00 0.000000e+00 0.000000e+00
1
Step 158000
Ar 1.259300e+00 0.000000e+00 0.000000e+00
1
Step 159000
Ar 1.253466e+00 0.000000e+00 0.000000e+00
1
Step 160000
Ar 1.265097e+00 0.000000e+00 0.000000e+00
1
Step 161000
Ar 1.310115e+00 0.000000e+00 0.000000e+00
1
Step 162000
Ar 1.287130e+00 0.000000e+00 0.000000e+00
1
Step 163000
Ar 1.284106e+00 0.000000e+00 0.000000e+00
1
Step 164000
Ar 1.293985e+00 0.000000e+00 0.000000e+00
1
Step 165000
Ar 1.303867e+00 0.000000e+00 0.000000e+00
1
Step 166000
Ar 1.320688e+00 0.000000e+00 0.000000e+00
1
Step 167000
Ar 1.332483e+00 0.000000e+00 0.000000e+00
1
Step 168000
Ar 1.313055e+00 0.000000e+00 0.000000e+00
1
Step 169000
Ar 1.320594e+00 0.000000e+00 0.000000e+00
1
Step 170000
Ar 1.345140e+00 0.000000e+00 0.000000e+00
1
Step 171000
Ar 1.328422e+00 0.000000e+00 0.000000e+00
1
Step 172000
Ar 1.311583e+00 0.000000e+00 0.000000e+00
1
Step 173000
Ar 1.320862e+00 0.000000e+00 0.000000e+00
1
Step 174000
Ar 1.317375e+00 0.000000e+00 0.000000e+00
1
Step 175000
Ar 1.318374e+00 0.000000e+00 0.000000e+00
1
Step 176000
Ar 1.280536e+00 0.000000e+00 0.000000e+00
1
Step 177000
Ar 1.289393e+00 0.000000e+00 0.000000e+00
1
Step 178000
Ar 1.292393e+00 0.000000e+00 0.000000e+00
1
Step 179000
Ar 1.281586e+00 0.000000e+00 0.000000e+00
1
Step 180000
Ar 1.280330e+00 0.000000e+00 0.000000e+00
1
Step 181000
Ar 1.354691e+00 0.000000e+00 0.000000e+00
1
Step 182000
Ar 1.355244e+00 0.000000e+00 0.000000e+00
1
Step 183000
Ar 1.364278e+00 0.000000e+00 0.000000e+00
1
Step 184000
Ar 1.357357e+00 0.000000e+00 0.000000e+00
1
Step 185000
Ar 1.358910e+00 0.000000e+00 0.000000e+00
1
Step 186000
Ar 1.380183e+00 0.000000e+00 0.000000e+00
1
Step 187000
Ar 1.381636e+00 0.000000e+00 0.000000e+00
1
Step 188000
Ar 1.401594e+00 0.000000e+00 0.000000e+00
1
Step 189000
Ar 1.392922e+00 0.000000e+00 0.000000e+00
1
Step 190000
Ar 1.402982e+00 0.000000e+00 0.000000e+00
1
Step 191000
Ar 1.416694e+00 0.000000e+00 0.000000e+00
1
Step 192000
Ar 1.428229e+00 0.000000e+00 0.000000e+00
1
Step 193000
Ar 1.461163e+00 0.000000e+00 0.000000e+00
1
Step 194000
Ar 1.426858e+00 0.000000e+00 0.000000e+00
1
Step 195000
Ar 1.424964e+00 0.000000e+00 0.000000e+00
1
Step 196000
Ar 1.449579e+00 0.000000e+00 0.000000e+00
1
Step 197000
Ar 1.453337e+00 0.000000e+00 0.000000e+00
1
Step 198000
Ar 1.450847e+00 0.000000e+00 0.000000e+00
1
Step 199000
Ar 1.443182e+00 0.000000e+00 0.000000e+00
1
Step 200000
Ar 1.438290e+00 0.000000e+00 0.000000e+00
1
Step 201000
Ar 1.330466e+00 0.000000e+00 0.000000e+00
1
Step 202000
Ar 1.326561e+00 0.000000e+00 0.000000e+00
1
Step 203000
Ar 1.327694e+00 0.000000e+00 0.000000e+00
1
Step 204000
Ar 1.331920e+00 0.000000e+00 0.000000e+00
1
Step 205000
Ar 1.331996e+00 0.000000e+00 0.000000e+00
1
Step 206000
Ar 1.097279e+00 0.000000e+00 0.000000e+00
1
Step 207000
Ar 1.122779e+00 0.000000e+00 0.000000e+00
1
Step 208000
Ar 1.127692e+00 0.000000e+00 0.000000e+00
1
Step 209000
Ar 1.141353e+00 0.000000e+00 0.000000e+00
1
Step 210000
Ar 1.150407e+00 0.000000e+00 0.000000e+00
1
Step 211000
Ar 1.122730e+00 0.000000e+00 0.000000e+00
1
Step 212000
Ar 1.117033e+00 0.000000e+00 0.000000e+00
1
Step 213000
Ar 1.125450e+00 0.000000e+00 0.000000e+00
1
Step 214000
Ar 1.113617e+00 0.000000e+00 0.000000e+00
1
Step 215000
Ar 1.134499e+00 0.000000e+00 0.000000e+00
1
Step 216000
Ar 1.043768e+00 0.000000e+00 0.000000e+00
1
Step 217000
Ar 1.002973e+00 0.000000e+00 0.000000e+00
1
Step 218000
Ar 1.015158e+00 0.000000e+00 0.000000e+00
1
Step 219000
Ar 1.017553e+00 0.000000e+00 0.000000e+00
1
Step 220000
Ar 9.829339e-01 0.000000e+00 0.000000e+00
1
Step 221000
Ar 9.619074e-01 0.000000e+00 0.000000e+00
1
Step 222000
Ar 9.572023e-01 0.000000e+00 0.000000e+00
1
Step 223000
Ar 9.585976e-01 0.000000e+00 0.000000e+00
1
Step 224000
Ar 9.576449e-01 0.000000e+00 0.000000e+00
1
Step 225000
Ar 9.541707e-01 0.000000e+00 0.000000e+00
1
Step 226000
Ar 1.013232e+00 0.000000e+00 0.000000e+00
1
Step 227000
Ar 1.060849e+00 0.000000e+00 0.000000e+00
1
Step 228000
Ar 1.013614e+00 0.000000e+00 0.000000e+00
1
Step 229000
Ar 1.058024e+00 0.000000e+00 0.000000e+00
1
Step 230000
Ar 1.038403e+00 0.000000e+00 0.000000e+00
1
Step 231000
Ar 1.060769e+00 0.000000e+00 0.000000e+00
1
Step 232000
Ar 1.054922e+00 0.000000e+00 0.000000e+00
1
Step 233000
Ar 1.067901e+00 0.000000e+00 0.000000e+00
1
Step 234000
Ar 1.051405e+00 0.000000e+00 0.000000e+00
1
Step 235000
Ar 1.056414e+00 0.000000e+00 0.000000e+00
1
Step 236000
Ar 9.928876e-01 0.000000e+00 0.000000e+00
1
Step 237000
Ar 1.024445e+00 0.000000e+00 0.000000e+00
1
Step 238000
Ar 1.008578e+00 0.000000e+00 0.000000e+00
1
Step 239000
Ar 1.000229e+00 0.000000e+00 0.000000e+00
1
Step 240000
Ar 1.014984e+00 0.000000e+00 0.000000e+00
1
Step 241000
Ar 9.981549e-01 0.000000e+00 0.000000e+00
1
Step 242000
Ar 1.001063e+00 0.000000e+00 0.000000e+00
1
Step 243000
Ar 9.930942e-01 0.000000e+00 0.000000e+00
1
Step 244000
Ar 1.002857e+00 0.000000e+00 0.000000e+00
1
Step 245000
Ar 1.001304e+00 0.000000e+00 0.000000e+00
1
Step 246000
Ar 1.071386e+00 0.000000e+00 0.000000e+00
1
Step 247000
Ar 1.071325e+00 0.000000e+00 0.000000e+00
1
Step 248000
Ar 1.067205e+00 0.000000e+00 0.000000e+00
1
Step 249000
Ar 1.072763e+00 0.000000e+00 0.000000e+00
1
Step 250000
Ar 1.065902e+00 0.000000e+00 0.000000e+00
1
Step 251000
Ar 1.113776e+00 0.000000e+00 0.000000e+00
1
Step 252000
Ar 1.111207e+00 0.000000e+00 0.000000e+00
1
Step 253000
Ar 1.103791e+00 0.000000e+00 0.000000e+00
1
Step 254000
Ar 1.118039e+00 0.000000e+00 0.000000e+00
1
Step 255000
Ar 1.113171e+00 0.000000e+00 0.000000e+00
1
Step 256000
Ar 1.102789e+00 0.000000e+00 0.000000e+00
1
Step 257000
Ar 1.101968e+00 0.000000e+00 0.000000e+00
1
Step 258000
Ar 1.100373e+00 0.000000e+00 0.000000e+00
1
Step 259000
Ar 1.101191e+00 0.000000e+00 0.000000e+00
1
Step 260000
Ar 1.099171e+00 0.000000e+00 0.000000e+00
1
Step 261000
Ar 1.104412e+00 0.000000e+00 0.000000e+00
1
Step 262000
Ar 1.121366e+00 0.000000e+00 0.000000e+00
1
Step 263000
Ar 1.123312e+00 0.000000e+00 0.000000e+00
1
Step 264000
Ar 1.125625e+00 0.000000e+00 0.000000e+00
1
Step 265000
Ar 1.123874e+00 0.000000e+00 0.000000e+00
1
Step 266000
Ar 1.243347e+00 0.000000e+00 0.000000e+00
1
Step 267000
Ar 1.249785e+00 0.000000e+00 0.000000e+00
1
Step 268000
Ar 1.251819e+00 0.000000e+00 0.000000e+00
1
Step 269000
Ar 1.245277e+00 0.000000e+00 0.000000e+00
1
Step 270000
Ar 1.245252e+00 0.000000e+00 0.000000e+00
1
Step 271000
Ar 7.304538e-01 0.000000e+00 0.000000e+00
1
Step 272000
Ar 7.492015e-01 0.000000e+00 0.000000e+00
1
Step 273000
Ar 8.208095e-01 0.000000e+00 0.000000e+00
1
Step 274000
Ar 8.657422e-01 0.000000e+00 0.000000e+00
1
Step 275000
Ar 7.319681e-01 0.000000e+00 0.000000e+00
1
Step 276000
Ar -9.923933e-01 0.000000e+00 0.000000e+00
1
Step 277000
Ar -9.419997e-01 0.000000e+00 0.000000e+00
1
Step 278000
Ar -8.912767e-01 0.000000e+00 0.000000e+00
1
Step 279000
Ar -9.196383e-01 0.000000e+00 0.000000e+00
1
Step 280000
Ar -1.229491e+00 0.000000e+00 0.000000e+00
1
Step 281000
Ar -9.906173e-01 0.000000e+00 0.000000e+00
1
Step 282000
Ar -1.005987e+00 0.000000e+00 0.000000e+00
1
Step 283000
Ar -1.121896e+00 0.000000e+00 0.000000e+00
1
Step 284000
Ar -9.988534e-01 0.000000e+00 0.000000e+00
1
Step 285000
Ar -1.129339e+00 0.000000e+00 0.000000e+00
1
Step 286000
Ar -9.782005e-01 0.000000e+00 0.000000e+00
1
Step 287000
Ar -1.011412e+00 0.000000e+00 0.000000e+00
1
Step 288000
Ar -1.040919e+00 0.000000e+00 0.000000e+00
1
Step 289000
Ar -1.043329e+00 0.000000e+00 0.000000e+00
1
Step 290000
Ar -8.817539e-01 0.000000e+00 0.000000e+00
1
Step 291000
Ar -1.054658e+00 0.000000e+00 0.000000e+00
1
Step 292000
Ar -9.951809e-01 0.000000e+00 0.000000e+00
1
Step 293000
Ar -1.014055e+00 0.000000e+00 0.000000e+00
1
Step 294000
Ar -1.025750e+00 0.000000e+00 0.000000e+00
1
Step 295000
Ar -9.493716e-01 0.000000e+00 0.000000e+00
1
Step 296000
Ar -1.081053e+00 0.000000e+00 0.000000e+00
1
Step 297000
Ar -9.680653e-01 0.000000e+00 0.000000e+00
1
Step 298000
Ar -1.004038e+00 0.000000e+00 0.000000e+00
1
Step 299000
Ar -1.035492e+00 0.000000e+00 0.000000e+00
1
Step 300000
Ar -9.826609e-01 0.000000e+00 0.000000e+00
1
Step 301000
Ar -1.061403e+00 0.000000e+00 0.000000e+00
1
Step 302000
Ar -1.071076e+00 0.000000e+00 0.000000e+00
1
Step 303000
Ar -1.071636e+00 0.000000e+00 0.000000e+00
1
Step 304000
Ar -1.027448e+00 0.000000e+00 0.000000e+00
1
Step 305000
Ar -1.099738e+00 0.000000e+00 0.000000e+00
1
Step 306000
Ar -1.111520e+00 0.000000e+00 0.000000e+00
1
Step 307000
Ar -1.108164e+00 0.000000e+00 0.000000e+00
1
Step 308000
Ar -1.113116e+00 0.000000e+00 0.000000e+00
1
Step 309000
Ar -1.112603e+00 0.000000e+00 0.000000e+00
1
Step 310000
Ar -1.117129e+00 0.000000e+00 0.000000e+00
1
Step 311000
Ar -1.216486e+00 0.000000e+00 0.000000e+00
1
Step 312000
Ar -1.175093e+00 0.000000e+00 0.000000e+00
1
Step 313000
Ar -1.161374e+00 0.000000e+00 0.000000e+00
1
Step 314000
Ar -1.158658e+00 0.000000e+00 0.000000e+00
1
Step 315000
Ar -1.202361e+00 0.000000e+00 0.000000e+00
1
Step 316000
Ar -1.257006e+00 0.000000e+00 0.000000e+00
1
Step 317000
Ar -1.284117e+00 0.000000e+00 0.000000e+00
1
Step 318000
Ar -1.336401e+00 0.000000e+00 0.000000e+00
1
Step 319000
Ar -1.247674e+00 0.000000e+00 0.000000e+00
1
Step 320000
Ar -1.247371e+00 0.000000e+00 0.000000e+00
1
Step 321000
Ar -1.311530e+00 0.000000e+00 0.000000e+00
1
Step 322000
Ar -1.264539e+00 0.000000e+00 0.000000e+00
1
Step 323000
Ar -1.260362e+00 0.000000e+00 0.000000e+00
1
Step 324000
Ar -1.262753e+00 0.000000e+00 0.000000e+00
1
Step 325000
Ar -1.274912e+00 0.000000e+00 0.000000e+00
1
Step 326000
Ar -1.138601e+00 0.000000e+00 0.000000e+00
1
Step 327000
Ar -1.157589e+00 0.000000e+00 0.000000e+00
1
Step 328000
Ar -1.177243e+00 0.000000e+00 0.000000e+00
1
Step 329000
Ar -1.155009e+00 0.000000e+00 0.000000e+00
1
Step 330000
Ar -1.160586e+00 0.000000e+00 0.000000e+00
1
Step 331000
Ar -1.183270e+00 0.000000e+00 0.000000e+00
1
Step 332000
Ar -1.174206e+00 0.000000e+00 0.000000e+00
1
Step 333000
Ar -1.181386e+00 0.000000e+00 0.000000e+00
1
Step 334000
Ar -1.176130e+00 0.000000e+00 0.000000e+00
1
Step 335000
Ar -1.182649e+00 0.000000e+00 0.000000e+00
1
Step 336000
Ar -1.174014e+00 0.000000e+00 0.000000e+00
1
Step 337000
Ar -1.172114e+00 0.000000e+00 0.000000e+00
1
Step 338000
Ar -1.173512e+00 0.000000e+00 0.000000e+00
1
Step 339000
Ar -1.167747e+00 0.000000e+00 0.000000e+00
1
Step 340000
Ar -1.172028e+00 0.000000e+00 0.000000e+00
1
Step 341000
Ar -9.987757e-01 0.000000e+00 0.000000e+00
1
Step 342000
Ar -1.015238e+00 0.000000e+00 0.000000e+00
1
Step 343000
Ar -1.046852e+00 0.000000e+00 0.000000e+00
1
Step 344000
Ar -1.028693e+00 0.000000e+00 0.000000e+00
1
Step 345000
Ar -1.055497e+00 0.000000e+00 0.000000e+00
1
Step 346000
Ar -1.018069e+00 0.000000e+00 0.000000e+00
1
Step 347000
Ar -1.023323e+00 0.000000e+00 0.000000e+00
1
Step 348000
Ar -1.023300e+00 0.000000e+00 0.000000e+00
1
Step 349000
Ar -1.027493e+00 0.000000e+00 0.000000e+00
1
Step 350000
Ar -1.009751e+00 0.000000e+00 0.000000e+00
1
Step 351000
Ar -9.965593e-01 0.000000e+00 0.000000e+00
1
Step 352000
Ar -9.961184e-01 0.000000e+00 0.000000e+00
1
Step 353000
Ar -9.961816e-01 0.000000e+00 0.000000e+00
1
Step 354000
Ar -1.001375e+00 0.000000e+00 0.000000e+00
1
Step 355000
Ar -9.964492e-01 0.000000e+00 0.000000e+00
1
Step 356000
Ar -9.307142e-01 0.000000e+00 0.000000e+00
1
Step 357000
Ar -9.100344e-01 0.000000e+00 0.000000e+00
1
Step 358000
Ar -9.283392e-01 0.000000e+00 0.000000e+00
1
Step 359000
Ar -9.086993e-01 0.000000e+00 0.000000e+00
1
Step 360000
Ar -9.021654e-01 0.000000e+00 0.000000e+00
1
Step 361000
Ar -8.927349e-01 0.000000e+00 0.000000e+00
1
Step 362000
Ar -8.921731e-01 0.000000e+00 0.000000e+00
1
Step 363000
Ar -1.318909e+00 0.000000e+00 0.000000e+00
1
Step 364000
Ar -1.293829e+00 0.000000e+00 0.000000e+00
1
Step 365000
Ar -1.300087e+00 0.000000e+00 0.000000e+00
1
Step 366000
Ar -1.340802e+00 0.000000e+00 0.000000e+00
1
Step 367000
Ar -1.320352e+00 0.000000e+00 0.000000e+00
1
Step 368000
Ar -1.406785e+00 0.000000e+00 0.000000e+00
1
Step 369000
Ar -1.316778e+00 0.000000e+00 0.000000e+00
1
Step 370000
Ar -1.312853e+00 0.000000e+00 0.000000e+00
1
Step 371000
Ar -1.376493e+00 0.000000e+00 0.000000e+00
1
Step 372000
Ar -1.424432e+00 0.000000e+00 0.000000e+00
1
Step 373000
Ar -1.362786e+00 0.000000e+00 0.000000e+00
1
Step 374000
Ar -1.357367e+00 0.000000e+00 0.000000e+00
1
Step 375000
Ar -1.362548e+00 0.000000e+00 0.000000e+00
1
Step 376000
Ar -1.144053e+00 0.000000e+00 0.000000e+00
1
Step 377000
Ar -1.146585e+00 0.000000e+00 0.000000e+00
1
Step 378000
Ar -1.144589e+00 0.000000e+00 0.000000e+00
1
Step 379000
Ar -1.142968e+00 0.000000e+00 0.000000e+00
1
Step 380000
Ar -1.144138e+00 0.000000e+00 0.000000e+00
1
Step 381000
Ar -1.025991e+00 0.000000e+00 0.000000e+00
1
Step 382000
Ar -1.031137e+00 0.000000e+00 0.000000e+00
1
Step 383000
Ar -1.024549e+00 0.000000e+00 0.000000e+00
1
Step 384000
Ar -1.022846e+00 0.000000e+00 0.000000e+00
1
Step 385000
Ar -1.028082e+00 0.000000e+00 0.000000e+00
1
Step 386000
Ar -9.348946e-01 0.000000e+00 0.000000e+00
1
Step 387000
Ar -9.186853e-01 0.000000e+00 0.000000e+00
1
Step 388000
Ar -9.331410e-01 0.000000e+00 0.000000e+00
1
Step 389000
Ar -9.352523e-01 0.000000e+00 0.000000e+00
1
Step 390000
Ar -9.213467e-01 0.000000e+00 0.000000e+00
1
Step 391000
Ar -9.699053e-01 0.000000e+00 0.000000e+00
1
Step 392000
Ar -9.680347e-01 0.000000e+00 0.000000e+00
1
Step 393000
Ar -9.654839e-01 0.000000e+00 0.000000e+00
1
Step 394000
Ar -9.662143e-01 0.000000e+00 0.000000e+00
1
Step 395000
Ar -9.715180e-01 0.000000e+00 0.000000e+00
1
Step 396000
Ar -9.327555e-01 0.000000e+00 0.000000e+00
1
Step 397000
Ar -9.380879e-01 0.000000e+00 0.000000e+00
1
Step 398000
Ar -9.362575e-01 0.000000e+00 0.000000e+00
1
Step 399000
Ar -9.313779e-01 0.000000e+00 0.000000e+00
1
Step 400000
Ar -9.364093e-01 0.000000e+00 0.000000e+00
1
Step 401000
Ar -8.413767e-01 0.000000e+00 0.000000e+00
1
Step 402000
Ar -7.840733e-01 0.000000e+00 0.000000e+00
1
Step 403000
Ar -8.421728e-01 0.000000e+00 0.000000e+00
1
Step 404000
Ar -8.601743e-01 0.000000e+00 0.000000e+00
1
Step 405000
Ar -8.430481e-01 0.000000e+00 0.000000e+00
1
Step 406000
Ar -8.125461e-01 0.000000e+00 0.000000e+00
1
Step 407000
Ar -8.310246e-01 0.000000e+00 0.000000e+00
1
Step 408000
Ar -8.253753e-01 0.000000e+00 0.000000e+00
1
Step 409000
Ar -7.871982e-01 0.000000e+00 0.000000e+00
1
Step 410000
Ar -6.054239e-01 0.000000e+00 0.000000e+00
1
Step 411000
Ar -5.423122e-01 0.000000e+00 0.000000e+00
1
Step 412000
Ar -5.390989e-01 0.000000e+00 0.000000e+00
1
Step 413000
Ar -5.871151e-01 0.000000e+00 0.000000e+00
1
Step 414000
Ar -5.603086e-01 0.000000e+00 0.000000e+00
1
Step 415000
Ar -2.646679e-01 0.000000e+00 0.000000e+00
1
Step 416000
Ar 5.695981e-01 0.000000e+00 0.000000e+00
1
Step 417000
Ar 5.746995e-01 0.000000e+00 0.000000e+00
1
Step 418000
Ar 7.131105e-01 0.000000e+00 0.000000e+00
1
Step 419000
Ar 6.941701e-01 0.000000e+00 0.000000e+00
1
Step 420000
Ar 6.981015e-01 0.000000e+00 0.000000e+00
1
Step 421000
Ar 7.166187e-01 0.000000e+00 0.000000e+00
1
Step 422000
Ar 7.180576e-01 0.000000e+00 0.000000e+00
1
Step 423000
Ar 7.218768e-01 0.000000e+00 0.000000e+00
1
Step 424000
Ar 7.134290e-01 0.000000e+00 0.000000e+00
1
Step 425000
Ar 7.196773e-01 0.000000e+00 0.000000e+00
1
Step 426000
Ar 6.547702e-01 0.000000e+00 0.000000e+00
1
Step 427000
Ar 5.548669e-01 0.000000e+00 0.000000e+00
1
Step 428000
Ar 6.423750e-01 0.000000e+00 0.000000e+00
1
Step 429000
Ar 6.238820e-01 0.000000e+00 0.000000e+00
1
Step 430000
Ar 5.793271e-01 0.000000e+00 0.000000e+00
1
Step 431000
Ar 6.677573e-01 0.000000e+00 0.000000e+00
1
Step 432000
Ar 6.814956e-01 0.000000e+00 0.000000e+00
1
Step 433000
Ar 6.447897e-01 0.000000e+00 0.000000e+00
1
Step 434000
Ar 6.096255e-01 0.000000e+00 0.000000e+00
1
Step 435000
Ar 6.626302e-01 0.000000e+00 0.000000e+00
1
Step 436000
Ar 6.803091e-01 0.000000e+00 0.000000e+00
1
Step 437000
Ar 6.840888e-01 0.000000e+00 0.000000e+00
1
Step 438000
Ar 6.802114e-01 0.000000e+00 0.000000e+00
1
Step 439000
Ar 6.858977e-01 0.000000e+00 0.000000e+00
1
Step 440000
Ar 6.770984e-01 0.000000e+00 0.000000e+00
1
Step 441000
Ar 6.843900e-01 0.000000e+00 0.000000e+00
1
Step 442000
Ar 6.345567e-01 0.000000e+00 0.000000e+00
1
Step 443000
Ar 6.379477e-01 0.000000e+00 0.000000e+00
1
Step 444000
Ar 6.347745e-01 0.000000e+00 0.000000e+00
1
Step 445000
Ar 6.109766e-01 0.000000e+00 0.000000e+00
1
Step 446000
Ar 5.919367e-01 0.000000e+00 0.000000e+00
1
Step 447000
Ar 5.952215e-01 0.000000e+00 0.000000e+00
1
Step 448000
Ar 5.971316e-01 0.000000e+00 0.000000e+00
1
Step 449000
Ar 5.978160e-01 0.000000e+00 0.000000e+00
1
Step 450000
Ar 5.897084e-01 0.000000e+00 0.000000e+00
1
Step 451000
Ar 8.610234e-01 0.000000e+00 0.000000e+00
1
Step 452000
Ar 8.476571e-01 0.000000e+00 0.000000e+00
1
Step 453000
Ar 8.455047e-01 0.000000e+00 0.000000e+00
1
Step 454000
Ar 8.217980e-01 0.000000e+00 0.000000e+00
1
Step 455000
Ar 8.247040e-01 0.000000e+00 0.000000e+00
1
Step 456000
Ar 7.803295e-01 0.000000e+00 0.000000e+00
1
Step 457000
Ar 7.800139e-01 0.000000e+00 0.000000e+00
1
Step 458000
Ar 7.782833e-01 0.000000e+00 0.000000e+00
1
Step 459000
Ar 8.026741e-01 0.000000e+00 0.000000e+00
1
Step 460000
Ar 7.733633e-01 0.000000e+00 0.000000e+00
1
Step 461000
Ar 8.589126e-01 0.000000e+00 0.000000e+00
1
Step 462000
Ar 8.575634e-01 0.000000e+00 0.000000e+00
1
Step 463000
Ar 8.494232e-01 0.000000e+00 0.000000e+00
1
Step 464000
Ar 8.406382e-01 0.000000e+00 0.000000e+00
1
Step 465000
Ar 8.678010e-01 0.000000e+00 0.000000e+00
1
Step 466000
Ar 7.560024e-01 0.000000e+00 0.000000e+00
1
Step 467000
Ar 7.536721e-01 0.000000e+00 0.000000e+00
1
Step 468000
Ar 7.514784e-01 0.000000e+00 0.000000e+00
1
Step 469000
Ar 7.516706e-01 0.000000e+00 0.000000e+00
1
Step 470000
Ar 7.541863e-01 0.000000e+00 0.000000e+00
1
Step 471000
Ar 9.274129e-01 0.000000e+00 0.000000e+00
1
Step 472000
Ar 9.298744e-01 0.000000e+00 0.000000e+00
1
Step 473000
Ar 9.347692e-01 0.000000e+00 0.000000e+00
1
Step 474000
Ar 9.276275e-01 0.000000e+00 0.000000e+00
1
Step 475000
Ar 9.285698e-01 0.000000e+00 0.000000e+00
1
Step 476000
Ar 8.981093e-01 0.000000e+00 0.000000e+00
1
Step 477000
Ar 8.997587e-01 0.000000e+00 0.000000e+00
1
Step 478000
Ar 8.974591e-01 0.000000e+00 0.000000e+00
1
Step 479000
Ar 8.981597e-01 0.000000e+00 0.000000e+00
1
Step 480000
Ar 8.961474e-01 0.000000e+00 0.000000e+00
1
Step 481000
Ar 8.111547e-01 0.000000e+00 0.000000e+00
1
Step 482000
Ar 8.085536e-01 0.000000e+00 0.000000e+00
1
Step 483000
Ar 7.904279e-01 0.000000e+00 0.000000e+00
1
Step 484000
Ar 7.873132e-01 0.000000e+00 0.000000e+00
1
Step 485000
Ar 8.070213e-01 0.000000e+00 0.000000e+00
1
Step 486000
Ar 8.414947e-01 0.000000e+00 0.000000e+00
1
Step 487000
Ar 8.449780e-01 0.000000e+00 0.000000e+00
1
Step 488000
Ar 8.391076e-01 0.000000e+00 0.000000e+00
1
Step 489000
Ar 8.340976e-01 0.000000e+00 0.000000e+00
1
Step 490000
Ar 8.380084e-01 0.000000e+00 0.000000e+00
1
Step 491000
Ar 7.890148e-01 0.000000e+00 0.000000e+00
1
Step 492000
Ar 7.890724e-01 0.000000e+00 0.000000e+00
1
Step 493000
Ar 7.940978e-01 0.000000e+00 0.000000e+00
1
Step 494000
Ar 7.826193e-01 0.000000e+00 0.000000e+00
1
Step 495000
Ar 7.911176e-01 0.000000e+00 0.000000e+00
1
Step 496000
Ar 7.459135e-01 0.000000e+00 0.000000e+00
1
Step 497000
Ar 7.405550e-01 0.000000e+00 0.000000e+00
1
Step 498000
Ar 7.426765e-01 0.000000e+00 0.000000e+00
1
Step 499000
Ar 7.431681e-01 0.000000e+00 0.000000e+00
1
Step 500000
Ar 7.447182e-01 0.000000e+00 0.000000e+00
1
Step 501000
Ar 6.307427e-01 0.000000e+00 0.000000e+00
1
Step 502000
Ar 6.277190e-01 0.000000e+00 0.000000e+00
1
Step 503000
Ar 6.497644e-01 0.000000e+00 0.000000e+00
1
Step 504000
Ar 6.413470e-01 0.000000e+00 0.000000e+00
1
Step 505000
Ar 6.270976e-01 0.000000e+00 0.000000e+00
1
Step 506000
Ar 7.090217e-01 0.000000e+00 0.000000e+00
1
Step 507000
Ar 7.085798e-01 0.000000e+00 0.000000e+00
1
Step 508000
Ar 6.844041e-01 0.000000e+00 0.000000e+00
1
Step 509000
Ar 6.887699e-01 0.000000e+00 0.000000e+00
1
Step 510000
Ar 8.116795e-01 0.000000e+00 0.000000e+00
1
Step 511000
Ar 1.407188e-01 0.000000e+00 0.000000e+00
1
Step 512000
Ar 4.214546e-01 0.000000e+00 0.000000e+00
1
Step 513000
Ar 4.393294e-01 0.000000e+00 0.000000e+00
1
Step 514000
Ar 2.774057e-01 0.000000e+00 0.000000e+00
1
Step 515000
Ar 4.165470e-01 0.000000e+00 0.000000e+00
1
Step 516000
Ar 5.667889e-01 0.000000e+00 0.000000e+00
1
Step 517000
Ar 4.839290e-01 0.000000e+00 0.000000e+00
1
Step 518000
Ar 5.547144e-01 0.000000e+00 0.000000e+00
1
Step 519000
Ar 5.584728e-01 0.000000e+00 0.000000e+00
1
Step 520000
Ar 5.374179e-01 0.000000e+00 0.000000e+00
1
Step 521000
Ar 4.504126e-01 0.000000e+00 0.000000e+00
1
Step 522000
Ar 4.662137e-01 0.000000e+00 0.000000e+00
1
Step 523000
Ar 4.409435e-01 0.000000e+00 0.000000e+00
1
Step 524000
Ar 4.772916e-01 0.000000e+00 0.000000e+00
1
Step 525000
Ar 4.637002e-01 0.000000e+00 0.000000e+00
1
Step 526000
Ar 4.479677e-01 0.000000e+00 0.000000e+00
1
Step 527000
Ar 4.531860e-01 0.000000e+00 0.000000e+00
1
Step 528000
Ar 4.468818e-01 0.000000e+00 0.000000e+00
1
Step 529000
Ar 4.309724e-01 0.000000e+00 0.000000e+00
1
Step 530000
Ar 4.446344e-01 0.000000e+00 0.000000e+00
1
Step 531000
Ar 5.130982e-01 0.000000e+00 0.000000e+00
1
Step 532000
Ar 4.764664e-01 0.000000e+00 0.000000e+00
1
Step 533000
Ar 5.138372e-01 0.000000e+00 0.000000e+00
1
Step 534000
Ar 5.182002e-01 0.000000e+00 0.000000e+00
1
Step 535000
Ar 4.779657e-01 0.000000e+00 0.000000e+00
1
Step 536000
Ar 5.654403e-01 0.000000e+00 0.000000e+00
1
Step 537000
Ar 5.563698e-01 0.000000e+00 0.000000e+00
1
Step 538000
Ar 5.666362e-01 0.000000e+00 0.000000e+00
1
Step 539000
Ar 5.618551e-01 0.000000e+00 0.000000e+00
1
Step 540000
Ar 5.651891e-01 0.000000e+00 0.000000e+00
1
Step 541000
Ar 5.066021e-01 0.000000e+00 0.000000e+00
1
Step 542000
Ar 5.021938e-01 0.000000e+00 0.000000e+00
1
Step 543000
Ar 5.094117e-01 0.000000e+00 0.000000e+00
1
Step 544000
Ar 5.198946e-01 0.000000e+00 0.000000e+00
1
Step 545000
Ar 5.043199e-01 0.000000e+00 0.000000e+00
1
Step 546000
Ar 1.345990e-01 0.000000e+00 0.000000e+00
1
Step 547000
Ar 3.718914e-01 0.000000e+00 0.000000e+00
1
Step 548000
Ar 3.851844e-01 0.000000e+00 0.000000e+00
1
Step 549000
Ar 2.423210e-01 0.000000e+00 0.000000e+00
1
Step 550000
Ar -2.127070e-01 0.000000e+00 0.000000e+00
1
Step 551000
Ar -1.143262e-01 0.000000e+00 0.000000e+00
1
Step 552000
Ar 3.082130e-01 0.000000e+00 0.000000e+00
1
Step 553000
Ar 1.939411e-01 0.000000e+00 0.000000e+00
1
Step 554000
Ar 3.662877e-01 0.000000e+00 0.000000e+00
1
Step 555000
Ar 2.113021e-01 0.000000e+00 0.000000e+00
1
Step 556000
Ar 5.973277e-02 0.000000e+00 0.000000e+00
1
Step 557000
Ar -7.838274e-02 0.000000e+00 0.000000e+00
1
Step 558000
Ar -1.336168e-01 0.000000e+00 0.000000e+00
1
Step 559000
Ar 2.890493e-02 0.000000e+00 0.000000e+00
1
Step 560000
Ar -7.237426e-02 0.000000e+00 0.000000e+00
1
Step 561000
Ar 1.898712e-01 0.000000e+00 0.000000e+00
1
Step 562000
Ar 1.046251e-01 0.000000e+00 0.000000e+00
1
Step 563000
Ar 1.105680e-01 0.000000e+00 0.000000e+00
1
Step 564000
Ar 6.989458e-02 0.000000e+00 0.000000e+00
1
Step 565000
Ar -9.734295e-03 0.000000e+00 0.000000e+00
1
Step 566000
Ar -5.651607e-02 0.000000e+00 0.000000e+00
1
Step 567000
Ar -4.338590e-02 0.000000e+00 0.000000e+00
1
Step 568000
Ar -2.941527e-02 0.000000e+00 0.000000e+00
1
Step 569000
Ar -3.267974e-02 0.000000e+00 0.000000e+00
1
Step 570000
Ar -5.622775e-02 0.000000e+00 0.000000e+00
1
Step 571000
Ar -2.252194e-02 0.000000e+00 0.000000e+00
1
Step 572000
Ar -2.584436e-02 0.000000e+00 0.000000e+00
1
Step 573000
Ar -2.836091e-02 0.000000e+00 0.000000e+00
1
Step 574000
Ar -2.742048e-02 0.000000e+00 0.000000e+00
1
Step 575000
Ar -2.554329e-02 0.000000e+00 0.000000e+00
1
Step 576000
Ar 1.396885e-01 0.000000e+00 0.000000e+00
1
Step 577000
Ar 1.393567e-01 0.000000e+00 0.000000e+00
1
Step 578000
Ar 1.896982e-01 0.000000e+00 0.000000e+00
1
Step 579000
Ar 3.128686e-02 0.000000e+00 0.000000e+00
1
Step 580000
Ar 6.200368e-02 0.000000e+00 0.000000e+00
1
Step 581000
Ar 1.234212e-01 0.000000e+00 0.000000e+00
1
Step 582000
Ar 1.596780e-01 0.000000e+00 0.000000e+00
1
Step 583000
Ar 1.464988e-01 0.000000e+00 0.000000e+00
1
Step 584000
Ar 1.098225e-01 0.000000e+00 0.000000e+00
1
Step 585000
Ar 1.694496e-01 0.000000e+00 0.000000e+00
1
Step 586000
Ar 3.202958e-01 0.000000e+00 0.000000e+00
1
Step 587000
Ar 2.368887e-01 0.000000e+00 0.000000e+00
1
Step 588000
Ar 3.660447e-01 0.000000e+00 0.000000e+00
1
Step 589000
Ar 3.317474e-01 0.000000e+00 0.000000e+00
1
Step 590000
Ar 3.266718e-01 0.000000e+00 0.000000e+00
1
Step 591000
Ar 4.292929e-01 0.000000e+00 0.000000e+00
1
Step 592000
Ar 4.345933e-01 0.000000e+00 0.000000e+00
1
Step 593000
Ar 4.342366e-01 0.000000e+00 0.000000e+00
1
Step 594000
Ar 4.330205e-01 0.000000e+00 0.000000e+00
1
Step 595000
Ar 4.342004e-01 0.000000e+00 0.000000e+00
1
Step 596000
Ar 3.892842e-01 0.000000e+00 0.000000e+00
1
Step 597000
Ar 3.885813e-01 0.000000e+00 0.000000e+00
1
Step 598000
Ar 3.899437e-01 0.000000e+00 0.000000e+00
1
Step 599000
Ar 3.453707e-01 0.000000e+00 0.000000e+00
1
Step 600000
Ar 3.859459e-01 0.000000e+00 0.000000e+00
1
Step 601000
Ar 4.036875e-01 0.000000e+00 0.000000e+00
1
Step 602000
Ar 3.999725e-01 0.000000e+00 0.000000e+00
1
Step 603000
Ar 4.040534e-01 0.000000e+00 0.000000e+00
1
Step 604000
Ar 3.997304e-01 0.000000e+00 0.000000e+00
1
Step 605000
Ar 4.008256e-01 0.000000e+00 0.000000e+00
1
Step 606000
Ar 4.863498e-01 0.000000e+00 0.000000e+00
1
Step 607000
Ar 4.925668e-01 0.000000e+00 0.000000e+00
1
Step 608000
Ar 4.927896e-01 0.000000e+00 0.000000e+00
1
Step 609000
Ar 4.872179e-01 0.000000e+00 0.000000e+00
1
Step 610000
Ar 4.871759e-01 0.000000e+00 0.000000e+00
1
Step 611000
Ar 6.398788e-01 0.000000e+00 0.000000e+00
1
Step 612000
Ar 6.449253e-01 0.000000e+00 0.000000e+00
1
Step 613000
Ar 6.491197e-01 0.000000e+00 0.000000e+00
1
Step 614000
Ar 6.471050e-01 0.000000e+00 0.000000e+00
1
Step 615000
Ar 6.518578e-01 0.000000e+00 0.000000e+00
1
Step 616000
Ar 3.499630e-01 0.000000e+00 0.000000e+00
1
Step 617000
Ar 3.733306e-01 0.000000e+00 0.000000e+00
1
Step 618000
Ar 3.612354e-01 0.000000e+00 0.000000e+00
1
Step 619000
Ar 3.447492e-01 0.000000e+00 0.000000e+00
1
Step 620000
Ar 3.586788e-01 0.000000e+00 0.000000e+00
1
Step 621000
Ar 6.164230e-01 0.000000e+00 0.000000e+00
1
Step 622000
Ar 1.123137e+00 0.000000e+00 0.000000e+00
1
Step 623000
Ar 1.449721e+00 0.000000e+00 0.000000e+00
1
Step 624000
Ar 1.454251e+00 0.000000e+00 0.000000e+00
1
Step 625000
Ar 1.483654e+00 0.000000e+00 0.000000e+00
1
Step 626000
Ar 1.499898e+00 0.000000e+00 0.000000e+00
1
Step 627000
Ar 1.504791e+00 0.000000e+00 0.000000e+00
1
Step 628000
Ar 1.503516e+00 0.000000e+00 0.000000e+00
1
Step 629000
Ar 1.518903e+00 0.000000e+00 0.000000e+00
1
Step 630000
Ar 1.494664e+00 0.000000e+00 0.000000e+00
1
Step 631000
Ar 1.515149e+00 0.000000e+00 0.000000e+00
1
Step 632000
Ar 1.510965e+00 0.000000e+00 0.000000e+00
1
Step 633000
Ar 1.518219e+00 0.000000e+00 0.000000e+00
1
Step 634000
Ar 1.520299e+00 0.000000e+00 0.000000e+00
1
Step 635000
Ar 1.524798e+00 0.000000e+00 0.000000e+00
1
Step 636000
Ar 1.258135e+00 0.000000e+00 0.000000e+00
1
Step 637000
Ar 1.257855e+00 0.000000e+00 0.000000e+00
1
Step 638000
Ar 1.257031e+00 0.000000e+00 0.000000e+00
1
Step 639000
Ar 1.254851e+00 0.000000e+00 0.000000e+00
1
Step 640000
Ar 1.172651e+00 0.000000e+00 0.000000e+00
1
Step 641000
Ar 1.203756e+00 0.000000e+00 0.000000e+00
1
Step 642000
Ar 1.216830e+00 0.000000e+00 0.000000e+00
1
Step 643000
Ar 1.208374e+00 0.000000e+00 0.000000e+00
1
Step 644000
Ar 1.211327e+00 0.000000e+00 0.000000e+00
1
Step 645000
Ar 1.215453e+00 0.000000e+00 0.000000e+00
1
Step 646000
Ar 1.164179e+00 0.000000e+00 0.000000e+00
1
Step 647000
Ar 1.164279e+00 0.000000e+00 0.000000e+00
1
Step 648000
Ar 1.164323e+00 0.000000e+00 0.000000e+00
1
Step 649000
Ar 1.159050e+00 0.000000e+00 0.000000e+00
1
Step 650000
Ar 1.158632e+00 0.000000e+00 0.000000e+00
1
Step 651000
Ar 1.201012e+00 0.000000e+00 0.000000e+00
1
Step 652000