1
Step 120000
Ar 8.785280e-01 0.000000e+00 0.000000e+00
1
Step 121000
Ar 8.794438e-01 0.000000e+00 0.000000e+00
1
Step 122000
Ar 8.104078e-01 0.000000e+00 0.000000e+00
1
Step 123000
Ar 7.335266e-01 0.000000e+00 0.000000e+00
1
Step 124000
Ar 8.616843e-01 0.000000e+00 0.000000e+00
1
Step 125000
Ar 1.062083e+00 0.000000e+00 0.000000e+00
1
Step 126000
Ar 1.087319e+00 0.000000e+00 0.000000e+00
1
Step 127000
Ar 9.667473e-01 0.000000e+00 0.000000e+00
1
Step 128000
Ar 1.034067e+00 0.000000e+00 0.000000e+00
1
Step 129000
Ar 1.128364e+00 0.000000e+00 0.000000e+00
1
Step 130000
Ar 7.967653e-01 0.000000e+00 0.000000e+00
1
Step 131000
Ar 7.458903e-01 0.000000e+00 0.000000e+00
1
Step 132000
Ar 7.614751e-01 0.000000e+00 0.000000e+00
1
Step 133000
Ar 9.903554e-01 0.000000e+00 0.000000e+00
1
Step 134000
Ar 9.109731e-01 0.000000e+00 0.000000e+00
1
Step 135000
Ar 8.453126e-01 0.000000e+00 0.000000e+00
1
Step 136000
Ar 1.163690e+00 0.000000e+00 0.000000e+00
1
Step 137000
Ar 1.196532e+00 0.000000e+00 0.000000e+00
1
Step 138000
Ar 1.234505e+00 0.000000e+00 0.000000e+00
1
Step 139000
Ar 1.258645e+00 0.000000e+00 0.000000e+00
1
Step 140000
Ar 1.187204e+00 0.000000e+00 0.000000e+00
1
Step 141000
Ar 1.174708e+00 0.000000e+00 0.000000e+00
1
Step 142000
Ar 1.044841e+00 0.000000e+00 0.000000e+00
1
Step 143000
Ar 8.294418e-01 0.000000e+00 0.000000e+00
1
Step 144000
Ar 6.951750e-01 0.000000e+00 0.000000e+00
1
Step 145000
Ar 7.803881e-01 0.000000e+00 0.000000e+00
1
Step 146000
Ar 9.325779e-01 0.000000e+00 0.000000e+00
1
Step 147000
Ar 9.822037e-01 0.000000e+00 0.000000e+00
1
Step 148000
Ar 8.961515e-01 0.000000e+00 0.000000e+00
1
Step 149000
Ar 1.010016e+00 0.000000e+00 0.000000e+00
1
Step 150000
Ar 1.021154e+00 0.000000e+00 0.000000e+00
1
Step 151000
Ar 1.071337e+00 0.000000e+00 0.000000e+00
1
Step 152000
Ar 1.112304e+00 0.000000e+00 0.000000e+00
1
Step 153000
Ar 8.191360e-01 0.000000e+00 0.000000e+00
1
Step 154000
Ar 9.492725e-01 0.000000e+00 0.000000e+00
1
Step 155000
Ar 1.056108e+00 0.000000e+00 0.000000e+00
1
Step 156000
Ar 9.583064e-01 0.000000e+00 0.000000e+00
1
Step 157000
Ar 9.383170e-01 0.000000e+00 0.000000e+00
1
Step 158000
Ar 8.591145e-01 0.000000e+00 0.000000e+00
1
Step 159000
Ar 6.319160e-01 0.000000e+00 0.000000e+00
1
Step 160000
Ar 6.626104e-01 0.000000e+00 0.000000e+00
1
Step 161000
Ar 6.467499e-01 0.000000e+00 0.000000e+00
1
Step 162000
Ar 7.122003e-01 0.000000e+00 0.000000e+00
1
Step 163000
Ar 1.002809e+00 0.000000e+00 0.000000e+00
1
Step 164000
Ar 1.025623e+00 0.000000e+00 0.000000e+00
1
Step 165000
Ar 1.138367e+00 0.000000e+00 0.000000e+00
1
Step 166000
Ar 1.153413e+00 0.000000e+00 0.000000e+00
1
Step 167000
Ar 1.100469e+00 0.000000e+00 0.000000e+00
1
Step 168000
Ar 1.220593e+00 0.000000e+00 0.000000e+00
1
Step 169000
Ar 9.780234e-01 0.000000e+00 0.000000e+00
1
Step 170000
Ar 9.202967e-01 0.000000e+00 0.000000e+00
1
Step 171000
Ar 8.854114e-01 0.000000e+00 0.000000e+00
1
Step 172000
Ar 9.970896e-01 0.000000e+00 0.000000e+00
1
Step 173000
Ar 1.074763e+00 0.000000e+00 0.000000e+00
1
Step 174000
Ar 1.243755e+00 0.000000e+00 0.000000e+00
1
Step 175000
Ar 1.275486e+00 0.000000e+00 0.000000e+00
1
Step 176000
Ar 1.289752e+00 0.000000e+00 0.000000e+00
1
Step 177000
Ar 1.140894e+00 0.000000e+00 0.000000e+00
1
Step 178000
Ar 1.209880e+00 0.000000e+00 0.000000e+00
1
Step 179000
Ar 1.312386e+00 0.000000e+00 0.000000e+00
1
Step 180000
Ar 1.368085e+00 0.000000e+00 0.000000e+00
1
Step 181000
Ar 1.117836e+00 0.000000e+00 0.000000e+00
1
Step 182000
Ar 1.088665e+00 0.000000e+00 0.000000e+00
1
Step 183000
Ar 1.106225e+00 0.000000e+00 0.000000e+00
1
Step 184000
Ar 1.275281e+00 0.000000e+00 0.000000e+00
1
Step 185000
Ar 1.162823e+00 0.000000e+00 0.000000e+00
1
Step 186000
Ar 8.714899e-01 0.000000e+00 0.000000e+00
1
Step 187000
Ar 9.030915e-01 0.000000e+00 0.000000e+00
1
Step 188000
Ar 9.449712e-01 0.000000e+00 0.000000e+00
1
Step 189000
Ar 1.012741e+00 0.000000e+00 0.000000e+00
1
Step 190000
Ar 6.844995e-01 0.000000e+00 0.000000e+00
1
Step 191000
Ar 7.723658e-01 0.000000e+00 0.000000e+00
1
Step 192000
Ar 8.414763e-01 0.000000e+00 0.000000e+00
1
Step 193000
Ar 7.879923e-01 0.000000e+00 0.000000e+00
1
Step 194000
Ar 7.558223e-01 0.000000e+00 0.000000e+00
1
Step 195000
Ar 5.942191e-01 0.000000e+00 0.000000e+00
1
Step 196000
Ar 6.075134e-01 0.000000e+00 0.000000e+00
1
Step 197000
Ar 5.563250e-01 0.000000e+00 0.000000e+00
1
Step 198000
Ar 3.256136e-01 0.000000e+00 0.000000e+00
1
Step 199000
Ar 5.376919e-01 0.000000e+00 0.000000e+00
1
Step 200000
Ar 4.922272e-01 0.000000e+00 0.000000e+00
1
Step 201000
Ar 5.796425e-01 0.000000e+00 0.000000e+00
1
Step 202000
Ar 5.082924e-01 0.000000e+00 0.000000e+00
1
Step 203000
Ar 4.391384e-01 0.000000e+00 0.000000e+00
1
Step 204000
Ar 4.605436e-01 0.000000e+00 0.000000e+00
1
Step 205000
Ar 6.756152e-01 0.000000e+00 0.000000e+00
1
Step 206000
Ar 4.476053e-01 0.000000e+00 0.000000e+00
1
Step 207000
Ar 4.781164e-01 0.000000e+00 0.000000e+00
1
Step 208000
Ar 5.495286e-01 0.000000e+00 0.000000e+00
1
Step 209000
Ar 5.234033e-01 0.000000e+00 0.000000e+00
1
Step 210000
Ar 6.591650e-01 0.000000e+00 0.000000e+00
1
Step 211000
Ar 7.266378e-01 0.000000e+00 0.000000e+00
1
Step 212000
Ar 7.198954e-01 0.000000e+00 0.000000e+00
1
Step 213000
Ar 7.016127e-01 0.000000e+00 0.000000e+00
1
Step 214000
Ar 7.459277e-01 0.000000e+00 0.000000e+00
1
Step 215000
Ar 9.280553e-01 0.000000e+00 0.000000e+00
1
Step 216000
Ar 1.038946e+00 0.000000e+00 0.000000e+00
1
Step 217000
Ar 1.149103e+00 0.000000e+00 0.000000e+00
1
Step 218000
Ar 1.126009e+00 0.000000e+00 0.000000e+00
1
Step 219000
Ar 9.644811e-01 0.000000e+00 0.000000e+00
1
Step 220000
Ar 1.222645e+00 0.000000e+00 0.000000e+00
1
Step 221000
Ar 1.200909e+00 0.000000e+00 0.000000e+00
1
Step 222000
Ar 8.879249e-01 0.000000e+00 0.000000e+00
1
Step 223000
Ar 1.206942e+00 0.000000e+00 0.000000e+00
1
Step 224000
Ar 1.249101e+00 0.000000e+00 0.000000e+00
1
Step 225000
Ar 1.235807e+00 0.000000e+00 0.000000e+00
1
Step 226000
Ar 1.397778e+00 0.000000e+00 0.000000e+00
1
Step 227000
Ar 1.409880e+00 0.000000e+00 0.000000e+00
1
Step 228000
Ar 1.336653e+00 0.000000e+00 0.000000e+00
1
Step 229000
Ar 1.326454e+00 0.000000e+00 0.000000e+00
1
Step 230000
Ar 1.265440e+00 0.000000e+00 0.000000e+00
1
Step 231000
Ar 1.300798e+00 0.000000e+00 0.000000e+00
1
Step 232000
Ar 1.321463e+00 0.000000e+00 0.000000e+00
1
Step 233000
Ar 1.376676e+00 0.000000e+00 0.000000e+00
1
Step 234000
Ar 1.348436e+00 0.000000e+00 0.000000e+00
1
Step 235000
Ar 1.300959e+00 0.000000e+00 0.000000e+00
1
Step 236000
Ar 1.356325e+00 0.000000e+00 0.000000e+00
1
Step 237000
Ar 1.295770e+00 0.000000e+00 0.000000e+00
1
Step 238000
Ar 5.893608e-01 0.000000e+00 0.000000e+00
1
Step 239000
Ar 7.983900e-01 0.000000e+00 0.000000e+00
1
Step 240000
Ar 8.372135e-01 0.000000e+00 0.000000e+00
1
Step 241000
Ar 7.686485e-01 0.000000e+00 0.000000e+00
1
Step 242000
Ar 6.681253e-01 0.000000e+00 0.000000e+00
1
Step 243000
Ar 7.362614e-01 0.000000e+00 0.000000e+00
1
Step 244000
Ar 1.049069e+00 0.000000e+00 0.000000e+00
1
Step 245000
Ar 1.184539e+00 0.000000e+00 0.000000e+00
1
Step 246000
Ar 1.063342e+00 0.000000e+00 0.000000e+00
1
Step 247000
Ar 9.747087e-01 0.000000e+00 0.000000e+00
1
Step 248000
Ar 9.499235e-01 0.000000e+00 0.000000e+00
1
Step 249000
Ar 9.611192e-01 0.000000e+00 0.000000e+00
1
Step 250000
Ar 8.774081e-01 0.000000e+00 0.000000e+00
1
Step 251000
Ar 8.055109e-01 0.000000e+00 0.000000e+00
1
Step 252000
Ar 8.175750e-01 0.000000e+00 0.000000e+00
1
Step 253000
Ar 4.692656e-01 0.000000e+00 0.000000e+00
1
Step 254000
Ar 5.145596e-01 0.000000e+00 0.000000e+00
1
Step 255000
Ar 2.368782e-01 0.000000e+00 0.000000e+00
1
Step 256000
Ar -9.907600e-01 0.000000e+00 0.000000e+00
1
Step 257000
Ar -8.007267e-01 0.000000e+00 0.000000e+00
1
Step 258000
Ar -6.974760e-01 0.000000e+00 0.000000e+00
1
Step 259000
Ar -6.687968e-01 0.000000e+00 0.000000e+00
1
Step 260000
Ar -7.447813e-01 0.000000e+00 0.000000e+00
1
Step 261000
Ar -8.885468e-01 0.000000e+00 0.000000e+00
1
Step 262000
Ar -9.015667e-01 0.000000e+00 0.000000e+00
1
Step 263000
Ar -9.595792e-01 0.000000e+00 0.000000e+00
1
Step 264000
Ar -8.515279e-01 0.000000e+00 0.000000e+00
1
Step 265000
Ar -8.684688e-01 0.000000e+00 0.000000e+00
1
Step 266000
Ar -8.332226e-01 0.000000e+00 0.000000e+00
1
Step 267000
Ar -9.225457e-01 0.000000e+00 0.000000e+00
1
Step 268000
Ar -1.271525e+00 0.000000e+00 0.000000e+00
1
Step 269000
Ar -1.289067e+00 0.000000e+00 0.000000e+00
1
Step 270000
Ar -1.082419e+00 0.000000e+00 0.000000e+00
1
Step 271000
Ar -9.413222e-01 0.000000e+00 0.000000e+00
1
Step 272000
Ar -9.334059e-01 0.000000e+00 0.000000e+00
1
Step 273000
Ar -8.196095e-01 0.000000e+00 0.000000e+00
1
Step 274000
Ar -9.161387e-01 0.000000e+00 0.000000e+00
1
Step 275000
Ar -8.635587e-01 0.000000e+00 0.000000e+00
1
Step 276000
Ar -9.779147e-01 0.000000e+00 0.000000e+00
1
Step 277000
Ar -1.021024e+00 0.000000e+00 0.000000e+00
1
Step 278000
Ar -1.014216e+00 0.000000e+00 0.000000e+00
1
Step 279000
Ar -1.193899e+00 0.000000e+00 0.000000e+00
1
Step 280000
Ar -1.142056e+00 0.000000e+00 0.000000e+00
1
Step 281000
Ar -1.110914e+00 0.000000e+00 0.000000e+00
1
Step 282000
Ar -1.124584e+00 0.000000e+00 0.000000e+00
1
Step 283000
Ar -1.037578e+00 0.000000e+00 0.000000e+00
1
Step 284000
Ar -1.101539e+00 0.000000e+00 0.000000e+00
1
Step 285000
Ar -1.064279e+00 0.000000e+00 0.000000e+00
1
Step 286000
Ar -1.047195e+00 0.000000e+00 0.000000e+00
1
Step 287000
Ar -1.253749e+00 0.000000e+00 0.000000e+00
1
Step 288000
Ar -1.216535e+00 0.000000e+00 0.000000e+00
1
Step 289000
Ar -1.200662e+00 0.000000e+00 0.000000e+00
1
Step 290000
Ar -1.224993e+00 0.000000e+00 0.000000e+00
1
Step 291000
Ar -1.239332e+00 0.000000e+00 0.000000e+00
1
Step 292000
Ar -1.303897e+00 0.000000e+00 0.000000e+00
1
Step 293000
Ar -1.164111e+00 0.000000e+00 0.000000e+00
1
Step 294000
Ar -1.134957e+00 0.000000e+00 0.000000e+00
1
Step 295000
Ar -1.004956e+00 0.000000e+00 0.000000e+00
1
Step 296000
Ar -9.559082e-01 0.000000e+00 0.000000e+00
1
Step 297000
Ar -8.777637e-01 0.000000e+00 0.000000e+00
1
Step 298000
Ar -8.831898e-01 0.000000e+00 0.000000e+00
1
Step 299000
Ar -9.681178e-01 0.000000e+00 0.000000e+00
1
Step 300000
Ar -1.054130e+00 0.000000e+00 0.000000e+00
1
Step 301000
Ar -1.093801e+00 0.000000e+00 0.000000e+00
1
Step 302000
Ar -1.085724e+00 0.000000e+00 0.000000e+00
1
Step 303000
Ar -8.975997e-01 0.000000e+00 0.000000e+00
1
Step 304000
Ar -7.791508e-01 0.000000e+00 0.000000e+00
1
Step 305000
Ar -6.200109e-01 0.000000e+00 0.000000e+00
1
Step 306000
Ar -6.045979e-01 0.000000e+00 0.000000e+00
1
Step 307000
Ar -2.329163e-01 0.000000e+00 0.000000e+00
1
Step 308000
Ar -5.579636e-01 0.000000e+00 0.000000e+00
1
Step 309000
Ar -7.181758e-01 0.000000e+00 0.000000e+00
1
Step 310000
Ar -6.759391e-01 0.000000e+00 0.000000e+00
1
Step 311000
Ar -7.572535e-01 0.000000e+00 0.000000e+00
1
Step 312000
Ar -7.677360e-01 0.000000e+00 0.000000e+00
1
Step 313000
Ar -7.936335e-01 0.000000e+00 0.000000e+00
1
Step 314000
Ar -7.310631e-01 0.000000e+00 0.000000e+00
1
Step 315000
Ar -6.876450e-01 0.000000e+00 0.000000e+00
1
Step 316000
Ar -7.724393e-01 0.000000e+00 0.000000e+00
1
Step 317000
Ar -6.382873e-01 0.000000e+00 0.000000e+00
1
Step 318000
Ar -4.585898e-01 0.000000e+00 0.000000e+00
1
Step 319000
Ar -5.780761e-01 0.000000e+00 0.000000e+00
1
Step 320000
Ar -5.360115e-01 0.000000e+00 0.000000e+00
1
Step 321000
Ar -4.790146e-01 0.000000e+00 0.000000e+00
1
Step 322000
Ar -7.122486e-01 0.000000e+00 0.000000e+00
1
Step 323000
Ar -7.604413e-01 0.000000e+00 0.000000e+00
1
Step 324000
Ar -6.503728e-01 0.000000e+00 0.000000e+00
1
Step 325000
Ar -6.296452e-01 0.000000e+00 0.000000e+00
1
Step 326000
Ar -3.953510e-01 0.000000e+00 0.000000e+00
1
Step 327000
Ar -5.076743e-01 0.000000e+00 0.000000e+00
1
Step 328000
Ar -5.887870e-01 0.000000e+00 0.000000e+00
1
Step 329000
Ar -6.873450e-01 0.000000e+00 0.000000e+00
1
Step 330000
Ar -4.961679e-01 0.000000e+00 0.000000e+00
1
Step 331000
Ar -5.642643e-01 0.000000e+00 0.000000e+00
1
Step 332000
Ar -4.212166e-01 0.000000e+00 0.000000e+00
1
Step 333000
Ar -5.976834e-01 0.000000e+00 0.000000e+00
1
Step 334000
Ar -8.415508e-01 0.000000e+00 0.000000e+00
1
Step 335000
Ar -8.456106e-01 0.000000e+00 0.000000e+00
1
Step 336000
Ar -1.030988e+00 0.000000e+00 0.000000e+00
1
Step 337000
Ar -9.470295e-01 0.000000e+00 0.000000e+00
1
Step 338000
Ar -9.116666e-01 0.000000e+00 0.000000e+00
1
Step 339000
Ar -9.860224e-01 0.000000e+00 0.000000e+00
1
Step 340000
Ar -1.072709e+00 0.000000e+00 0.000000e+00
1
Step 341000
Ar -1.043290e+00 0.000000e+00 0.000000e+00
1
Step 342000
Ar -1.023807e+00 0.000000e+00 0.000000e+00
1
Step 343000
Ar -1.180722e+00 0.000000e+00 0.000000e+00
1
Step 344000
Ar -1.117756e+00 0.000000e+00 0.000000e+00
1
Step 345000
Ar -1.151110e+00 0.000000e+00 0.000000e+00
1
Step 346000
Ar -1.154961e+00 0.000000e+00 0.000000e+00
1
Step 347000
Ar -1.236860e+00 0.000000e+00 0.000000e+00
1
Step 348000
Ar -1.063417e+00 0.000000e+00 0.000000e+00
1
Step 349000
Ar -1.166479e+00 0.000000e+00 0.000000e+00
1
Step 350000
Ar -1.203754e+00 0.000000e+00 0.000000e+00
1
Step 351000
Ar -1.314846e+00 0.000000e+00 0.000000e+00
1
Step 352000
Ar -1.396357e+00 0.000000e+00 0.000000e+00
1
Step 353000
Ar -1.431200e+00 0.000000e+00 0.000000e+00
1
Step 354000
Ar -1.349465e+00 0.000000e+00 0.000000e+00
1
Step 355000
Ar -1.286745e+00 0.000000e+00 0.000000e+00
1
Step 356000
Ar -1.183586e+00 0.000000e+00 0.000000e+00
1
Step 357000
Ar -1.103686e+00 0.000000e+00 0.000000e+00
1
Step 358000
Ar -1.004389e+00 0.000000e+00 0.000000e+00
1
Step 359000
Ar -8.114928e-01 0.000000e+00 0.000000e+00
1
Step 360000
Ar -8.243573e-01 0.000000e+00 0.000000e+00
1
Step 361000
Ar -7.861409e-01 0.000000e+00 0.000000e+00
1
Step 362000
Ar -8.572010e-01 0.000000e+00 0.000000e+00
1
Step 363000
Ar -9.073688e-01 0.000000e+00 0.000000e+00
1
Step 364000
Ar -8.111821e-01 0.000000e+00 0.000000e+00
1
Step 365000
Ar -8.794867e-01 0.000000e+00 0.000000e+00
1
Step 366000
Ar -8.321809e-01 0.000000e+00 0.000000e+00
1
Step 367000
Ar -7.046268e-01 0.000000e+00 0.000000e+00
1
Step 368000
Ar -7.406282e-01 0.000000e+00 0.000000e+00
1
Step 369000
Ar -8.655890e-01 0.000000e+00 0.000000e+00
1
Step 370000
Ar -3.748705e-01 0.000000e+00 0.000000e+00
1
Step 371000
Ar -8.034942e-01 0.000000e+00 0.000000e+00
1
Step 372000
Ar -5.772279e-01 0.000000e+00 0.000000e+00
1
Step 373000
Ar -5.209268e-01 0.000000e+00 0.000000e+00
1
Step 374000
Ar -4.892151e-01 0.000000e+00 0.000000e+00
1
Step 375000
Ar -3.520989e-01 0.000000e+00 0.000000e+00
1
Step 376000
Ar -2.797466e-01 0.000000e+00 0.000000e+00
1
Step 377000
Ar -3.647223e-01 0.000000e+00 0.000000e+00
1
Step 378000
Ar -3.073277e-01 0.000000e+00 0.000000e+00
1
Step 379000
Ar -2.464443e-01 0.000000e+00 0.000000e+00
1
Step 380000
Ar -3.273934e-01 0.000000e+00 0.000000e+00
1
Step 381000
Ar -3.321941e-01 0.000000e+00 0.000000e+00
1
Step 382000
Ar -4.486231e-01 0.000000e+00 0.000000e+00
1
Step 383000
Ar -4.335209e-01 0.000000e+00 0.000000e+00
1
Step 384000
Ar -3.834436e-01 0.000000e+00 0.000000e+00
1
Step 385000
Ar -5.286072e-01 0.000000e+00 0.000000e+00
1
Step 386000
Ar -4.716420e-01 0.000000e+00 0.000000e+00
1
Step 387000
Ar -4.021390e-01 0.000000e+00 0.000000e+00
1
Step 388000
Ar -6.431832e-01 0.000000e+00 0.000000e+00
1
Step 389000
Ar -6.616103e-01 0.000000e+00 0.000000e+00
1
Step 390000
Ar -6.546871e-01 0.000000e+00 0.000000e+00
1
Step 391000
Ar -3.424410e-01 0.000000e+00 0.000000e+00
1
Step 392000
Ar -4.646224e-01 0.000000e+00 0.000000e+00
1
Step 393000
Ar -5.534400e-01 0.000000e+00 0.000000e+00
1
Step 394000
Ar -5.459993e-01 0.000000e+00 0.000000e+00
1
Step 395000
Ar -5.160392e-01 0.000000e+00 0.000000e+00
1
Step 396000
Ar -5.080632e-01 0.000000e+00 0.000000e+00
1
Step 397000
Ar -4.106828e-01 0.000000e+00 0.000000e+00
1
Step 398000
Ar -4.069203e-01 0.000000e+00 0.000000e+00
1
Step 399000
Ar -9.905394e-01 0.000000e+00 0.000000e+00
1
Step 400000
Ar -6.713053e-01 0.000000e+00 0.000000e+00
1
Step 401000
Ar -6.177859e-01 0.000000e+00 0.000000e+00
1
Step 402000
Ar -7.879853e-01 0.000000e+00 0.000000e+00
1
Step 403000
Ar -7.229181e-01 0.000000e+00 0.000000e+00
1
Step 404000
Ar -7.323284e-01 0.000000e+00 0.000000e+00
1
Step 405000
Ar -7.531896e-01 0.000000e+00 0.000000e+00
1
Step 406000
Ar -7.058958e-01 0.000000e+00 0.000000e+00
1
Step 407000
Ar -8.466497e-01 0.000000e+00 0.000000e+00
1
Step 408000
Ar -5.697283e-01 0.000000e+00 0.000000e+00
1
Step 409000
Ar -7.187875e-01 0.000000e+00 0.000000e+00
1
Step 410000
Ar -7.466130e-01 0.000000e+00 0.000000e+00
1
Step 411000
Ar -9.659672e-01 0.000000e+00 0.000000e+00
1
Step 412000
Ar -1.457119e+00 0.000000e+00 0.000000e+00
1
Step 413000
Ar -1.093950e+00 0.000000e+00 0.000000e+00
1
Step 414000
Ar -1.263100e+00 0.000000e+00 0.000000e+00
1
Step 415000
Ar -1.248476e+00 0.000000e+00 0.000000e+00
1
Step 416000
Ar -1.380704e+00 0.000000e+00 0.000000e+00
1
Step 417000
Ar -1.331548e+00 0.000000e+00 0.000000e+00
1
Step 418000
Ar -1.208271e+00 0.000000e+00 0.000000e+00
1
Step 419000
Ar -1.367263e+00 0.000000e+00 0.000000e+00
1
Step 420000
Ar -1.343469e+00 0.000000e+00 0.000000e+00
1
Step 421000
Ar -1.323575e+00 0.000000e+00 0.000000e+00
1
Step 422000
Ar -1.147342e+00 0.000000e+00 0.000000e+00
1
Step 423000
Ar -1.116758e+00 0.000000e+00 0.000000e+00
1
Step 424000
Ar -1.130655e+00 0.000000e+00 0.000000e+00
1
Step 425000
Ar -1.191567e+00 0.000000e+00 0.000000e+00
1
Step 426000
Ar -1.139215e+00 0.000000e+00 0.000000e+00
1
Step 427000
Ar -9.301687e-01 0.000000e+00 0.000000e+00
1
Step 428000
Ar -9.754664e-01 0.000000e+00 0.000000e+00
1
Step 429000
Ar -9.500948e-01 0.000000e+00 0.000000e+00
1
Step 430000
Ar -1.054317e+00 0.000000e+00 0.000000e+00
1
Step 431000
Ar -1.031828e+00 0.000000e+00 0.000000e+00
1
Step 432000
Ar -1.023077e+00 0.000000e+00 0.000000e+00
1
Step 433000
Ar -8.908280e-01 0.000000e+00 0.000000e+00
1
Step 434000
Ar -9.354576e-01 0.000000e+00 0.000000e+00
1
Step 435000
Ar -1.079294e+00 0.000000e+00 0.000000e+00
1
Step 436000
Ar -1.038261e+00 0.000000e+00 0.000000e+00
1
Step 437000
Ar -1.000787e+00 0.000000e+00 0.000000e+00
1
Step 438000
Ar -9.265780e-01 0.000000e+00 0.000000e+00
1
Step 439000
Ar -8.934542e-01 0.000000e+00 0.000000e+00
1
Step 440000
Ar -9.371943e-01 0.000000e+00 0.000000e+00
1
Step 441000
Ar -1.172206e+00 0.000000e+00 0.000000e+00
1
Step 442000
Ar -1.076531e+00 0.000000e+00 0.000000e+00
1
Step 443000
Ar -1.290228e+00 0.000000e+00 0.000000e+00
1
Step 444000
Ar -1.472957e+00 0.000000e+00 0.000000e+00
1
Step 445000
Ar -1.408871e+00 0.000000e+00 0.000000e+00
1
Step 446000
Ar -1.421753e+00 0.000000e+00 0.000000e+00
1
Step 447000
Ar -1.306159e+00 0.000000e+00 0.000000e+00
1
Step 448000
Ar -1.338303e+00 0.000000e+00 0.000000e+00
1
Step 449000
Ar -1.321484e+00 0.000000e+00 0.000000e+00
1
Step 450000
Ar -1.229479e+00 0.000000e+00 0.000000e+00
1
Step 451000
Ar -1.276131e+00 0.000000e+00 0.000000e+00
1
Step 452000
Ar -1.263845e+00 0.000000e+00 0.000000e+00
1
Step 453000
Ar -1.184181e+00 0.000000e+00 0.000000e+00
1
Step 454000
Ar -1.015720e+00 0.000000e+00 0.000000e+00
1
Step 455000
Ar -1.171609e+00 0.000000e+00 0.000000e+00
1
Step 456000
Ar -1.217407e+00 0.000000e+00 0.000000e+00
1
Step 457000
Ar -1.227171e+00 0.000000e+00 0.000000e+00
1
Step 458000
Ar -1.210135e+00 0.000000e+00 0.000000e+00
1
Step 459000
Ar -1.276827e+00 0.000000e+00 0.000000e+00
1
Step 460000
Ar -1.441626e+00 0.000000e+00 0.000000e+00
1
Step 461000
Ar -1.410042e+00 0.000000e+00 0.000000e+00
1
Step 462000
Ar -1.243906e+00 0.000000e+00 0.000000e+00
1
Step 463000
Ar -1.255273e+00 0.000000e+00 0.000000e+00
1
Step 464000
Ar -1.362549e+00 0.000000e+00 0.000000e+00
1
Step 465000
Ar -1.314497e+00 0.000000e+00 0.000000e+00
1
Step 466000
Ar -1.099395e+00 0.000000e+00 0.000000e+00
1
Step 467000
Ar -1.067573e+00 0.000000e+00 0.000000e+00
1
Step 468000
Ar -1.153144e+00 0.000000e+00 0.000000e+00
1
Step 469000
Ar -1.110924e+00 0.000000e+00 0.000000e+00
1
Step 470000
Ar -1.126645e+00 0.000000e+00 0.000000e+00
1
Step 471000
Ar -1.110007e+00 0.000000e+00 0.000000e+00
1
Step 472000
Ar -9.667363e-01 0.000000e+00 0.000000e+00
1
Step 473000
Ar -9.756892e-01 0.000000e+00 0.000000e+00
1
Step 474000
Ar -1.052851e+00 0.000000e+00 0.000000e+00
1
Step 475000
Ar -9.906617e-01 0.000000e+00 0.000000e+00
1
Step 476000
Ar -5.386755e-01 0.000000e+00 0.000000e+00
1
Step 477000
Ar -6.955956e-01 0.000000e+00 0.000000e+00
1
Step 478000
Ar -5.629873e-01 0.000000e+00 0.000000e+00
1
Step 479000
Ar -5.429269e-01 0.000000e+00 0.000000e+00
1
Step 480000
Ar -2.919693e-01 0.000000e+00 0.000000e+00
1
Step 481000
Ar -2.559494e-01 0.000000e+00 0.000000e+00
1
Step 482000
Ar -3.201969e-01 0.000000e+00 0.000000e+00
1
Step 483000
Ar 1.773393e-01 0.000000e+00 0.000000e+00
1
Step 484000
Ar 2.299948e-02 0.000000e+00 0.000000e+00
1
Step 485000
Ar 1.018644e-01 0.000000e+00 0.000000e+00
1
Step 486000
Ar 1.378185e-01 0.000000e+00 0.000000e+00
1
Step 487000
Ar 5.550223e-02 0.000000e+00 0.000000e+00
1
Step 488000
Ar 6.083957e-02 0.000000e+00 0.000000e+00
1
Step 489000
Ar 2.639101e-01 0.000000e+00 0.000000e+00
1
Step 490000
Ar 4.000878e-01 0.000000e+00 0.000000e+00
1
Step 491000
Ar 4.156954e-01 0.000000e+00 0.000000e+00
1
Step 492000
Ar 3.802631e-01 0.000000e+00 0.000000e+00
1
Step 493000
Ar 4.319535e-01 0.000000e+00 0.000000e+00
1
Step 494000
Ar 3.496461e-01 0.000000e+00 0.000000e+00
1
Step 495000
Ar 3.894930e-01 0.000000e+00 0.000000e+00
1
Step 496000
Ar 4.090197e-01 0.000000e+00 0.000000e+00
1
Step 497000
Ar 3.154233e-01 0.000000e+00 0.000000e+00
1
Step 498000
Ar 3.403567e-01 0.000000e+00 0.000000e+00
1
Step 499000
Ar 2.978339e-01 0.000000e+00 0.000000e+00
1
Step 500000
Ar 1.977511e-01 0.000000e+00 0.000000e+00
1
Step 501000
Ar 3.622067e-01 0.000000e+00 0.000000e+00
1
Step 502000
Ar 3.055188e-01 0.000000e+00 0.000000e+00
1
Step 503000
Ar 6.152291e-01 0.000000e+00 0.000000e+00
1
Step 504000
Ar 6.238927e-01 0.000000e+00 0.000000e+00
1
Step 505000
Ar 7.858649e-01 0.000000e+00 0.000000e+00
1
Step 506000
Ar 7.114094e-01 0.000000e+00 0.000000e+00
1
Step 507000
Ar 8.287978e-01 0.000000e+00 0.000000e+00
1
Step 508000
Ar 5.298013e-01 0.000000e+00 0.000000e+00
1
Step 509000
Ar 5.670208e-01 0.000000e+00 0.000000e+00
1
Step 510000
Ar 6.411799e-01 0.000000e+00 0.000000e+00
1
Step 511000
Ar 6.487317e-01 0.000000e+00 0.000000e+00
1
Step 512000
Ar 6.035005e-01 0.000000e+00 0.000000e+00
1
Step 513000
Ar 4.212035e-01 0.000000e+00 0.000000e+00
1
Step 514000
Ar 4.844981e-01 0.000000e+00 0.000000e+00
1
Step 515000
Ar 4.228824e-01 0.000000e+00 0.000000e+00
1
Step 516000
Ar 1.256105e+00 0.000000e+00 0.000000e+00
1
Step 517000
Ar 1.216272e+00 0.000000e+00 0.000000e+00
1
Step 518000
Ar 1.052555e+00 0.000000e+00 0.000000e+00
1
Step 519000
Ar 1.080858e+00 0.000000e+00 0.000000e+00
1
Step 520000
Ar 1.135081e+00 0.000000e+00 0.000000e+00
1
Step 521000
Ar 1.095636e+00 0.000000e+00 0.000000e+00
1
Step 522000
Ar 6.924494e-01 0.000000e+00 0.000000e+00
1
Step 523000
Ar 7.489347e-01 0.000000e+00 0.000000e+00
1
Step 524000
Ar 7.936098e-01 0.000000e+00 0.000000e+00
1
Step 525000
Ar 7.235652e-01 0.000000e+00 0.000000e+00
1
Step 526000
Ar 6.834187e-01 0.000000e+00 0.000000e+00
1
Step 527000
Ar 7.048562e-01 0.000000e+00 0.000000e+00
1
Step 528000
Ar 6.786836e-01 0.000000e+00 0.000000e+00
1
Step 529000
Ar 5.744680e-01 0.000000e+00 0.000000e+00
1
Step 530000
Ar 5.031137e-01 0.000000e+00 0.000000e+00
1
Step 531000
Ar 4.558236e-01 0.000000e+00 0.000000e+00
1
Step 532000
Ar 5.616815e-01 0.000000e+00 0.000000e+00
1
Step 533000
Ar 6.304581e-01 0.000000e+00 0.000000e+00
1
Step 534000
Ar 5.380905e-01 0.000000e+00 0.000000e+00
1
Step 535000
Ar 6.220612e-01 0.000000e+00 0.000000e+00
1
Step 536000
Ar 6.567888e-01 0.000000e+00 0.000000e+00
1
Step 537000
Ar 9.869408e-01 0.000000e+00 0.000000e+00
1
Step 538000
Ar 1.039223e+00 0.000000e+00 0.000000e+00
1
Step 539000
Ar 1.020303e+00 0.000000e+00 0.000000e+00
1
Step 540000
Ar 9.997660e-01 0.000000e+00 0.000000e+00
1
Step 541000
Ar 1.090003e+00 0.000000e+00 0.000000e+00
1
Step 542000
Ar 1.388840e+00 0.000000e+00 0.000000e+00
1
Step 543000
Ar 1.364481e+00 0.000000e+00 0.000000e+00
1
Step 544000
Ar 1.126117e+00 0.000000e+00 0.000000e+00
1
Step 545000
Ar 1.067656e+00 0.000000e+00 0.000000e+00
1
Step 546000
Ar 1.080523e+00 0.000000e+00 0.000000e+00
1
Step 547000
Ar 1.026069e+00 0.000000e+00 0.000000e+00
1
Step 548000
Ar 1.049674e+00 0.000000e+00 0.000000e+00
1
Step 549000
Ar 1.109039e+00 0.000000e+00 0.000000e+00
1
Step 550000
Ar 1.175693e+00 0.000000e+00 0.000000e+00
1
Step 551000
Ar 1.421435e+00 0.000000e+00 0.000000e+00
1
Step 552000
Ar 1.454561e+00 0.000000e+00 0.000000e+00
1
Step 553000
Ar 1.464363e+00 0.000000e+00 0.000000e+00
1
Step 554000
Ar 1.478160e+00 0.000000e+00 0.000000e+00
1
Step 555000
Ar 1.496663e+00 0.000000e+00 0.000000e+00
1
Step 556000
Ar 1.390741e+00 0.000000e+00 0.000000e+00
1
Step 557000
Ar 1.341164e+00 0.000000e+00 0.000000e+00
1
Step 558000
Ar 1.314513e+00 0.000000e+00 0.000000e+00
1
Step 559000
Ar 1.331752e+00 0.000000e+00 0.000000e+00
1
Step 560000
Ar 1.380893e+00 0.000000e+00 0.000000e+00
1
Step 561000
Ar 1.361602e+00 0.000000e+00 0.000000e+00
1
Step 562000
Ar 1.251592e+00 0.000000e+00 0.000000e+00
1
Step 563000
Ar 1.117322e+00 0.000000e+00 0.000000e+00
1
Step 564000
Ar 1.168587e+00 0.000000e+00 0.000000e+00
1
Step 565000
Ar 1.147456e+00 0.000000e+00 0.000000e+00
1
Step 566000
Ar 1.156114e+00 0.000000e+00 0.000000e+00
1
Step 567000
Ar 1.191151e+00 0.000000e+00 0.000000e+00
1
Step 568000
Ar 8.065022e-01 0.000000e+00 0.000000e+00
1
Step 569000
Ar 9.088749e-01 0.000000e+00 0.000000e+00
1
Step 570000
Ar 9.180362e-01 0.000000e+00 0.000000e+00
1
Step 571000
Ar 8.926178e-01 0.000000e+00 0.000000e+00
1
Step 572000
Ar 9.000587e-01 0.000000e+00 0.000000e+00
1
Step 573000
Ar 9.385554e-01 0.000000e+00 0.000000e+00
1
Step 574000
Ar 8.530324e-01 0.000000e+00 0.000000e+00
1
Step 575000
Ar 8.687013e-01 0.000000e+00 0.000000e+00
1
Step 576000
Ar 8.261310e-01 0.000000e+00 0.000000e+00
1
Step 577000
Ar 1.008414e+00 0.000000e+00 0.000000e+00
1
Step 578000
Ar 9.886972e-01 0.000000e+00 0.000000e+00
1
Step 579000
Ar 8.504885e-01 0.000000e+00 0.000000e+00
1
Step 580000
Ar 9.303581e-01 0.000000e+00 0.000000e+00
1
Step 581000
Ar 9.169727e-01 0.000000e+00 0.000000e+00
1
Step 582000
Ar 8.385957e-01 0.000000e+00 0.000000e+00
1
Step 583000
Ar 8.162127e-01 0.000000e+00 0.000000e+00
1
Step 584000
Ar 7.279907e-01 0.000000e+00 0.000000e+00
1
Step 585000
Ar 1.179011e+00 0.000000e+00 0.000000e+00
1
Step 586000
Ar 1.227457e+00 0.000000e+00 0.000000e+00
1
Step 587000
Ar 1.211712e+00 0.000000e+00 0.000000e+00
1
Step 588000
Ar 1.281566e+00 0.000000e+00 0.000000e+00
1
Step 589000
Ar 1.286483e+00 0.000000e+00 0.000000e+00
1
Step 590000
Ar 1.352418e+00 0.000000e+00 0.000000e+00
1
Step 591000
Ar 1.306085e+00 0.000000e+00 0.000000e+00
1
Step 592000
Ar 1.240309e+00 0.000000e+00 0.000000e+00
1
Step 593000
Ar 1.103133e+00 0.000000e+00 0.000000e+00
1
Step 594000
Ar 1.094085e+00 0.000000e+00 0.000000e+00
1
Step 595000
Ar 1.272198e+00 0.000000e+00 0.000000e+00
1
Step 596000
Ar 1.198004e+00 0.000000e+00 0.000000e+00
1
Step 597000
Ar 1.156916e+00 0.000000e+00 0.000000e+00
1
Step 598000
Ar 1.344490e+00 0.000000e+00 0.000000e+00
1
Step 599000
Ar 1.168972e+00 0.000000e+00 0.000000e+00
1
Step 600000
Ar 1.142198e+00 0.000000e+00 0.000000e+00
1
Step 601000
Ar 9.750592e-01 0.000000e+00 0.000000e+00
1
Step 602000
Ar 8.780709e-01 0.000000e+00 0.000000e+00
1
Step 603000
Ar 1.029891e+00 0.000000e+00 0.000000e+00
1
Step 604000
Ar 9.511983e-01 0.000000e+00 0.000000e+00
1
Step 605000
Ar 9.247498e-01 0.000000e+00 0.000000e+00
1
Step 606000
Ar 9.696918e-01 0.000000e+00 0.000000e+00
1
Step 607000
Ar 7.758315e-01 0.000000e+00 0.000000e+00
1
Step 608000
Ar 7.638669e-01 0.000000e+00 0.000000e+00
1
Step 609000
Ar 8.948943e-01 0.000000e+00 0.000000e+00
1
Step 610000
Ar 1.047755e+00 0.000000e+00 0.000000e+00
1
Step 611000
Ar 1.204246e+00 0.000000e+00 0.000000e+00
1
Step 612000
Ar 1.226600e+00 0.000000e+00 0.000000e+00
1
Step 613000
Ar 1.264262e+00 0.000000e+00 0.000000e+00
1
Step 614000
Ar 1.289916e+00 0.000000e+00 0.000000e+00
1
Step 615000
Ar 1.284115e+00 0.000000e+00 0.000000e+00
1
Step 616000
Ar 1.265811e+00 0.000000e+00 0.000000e+00
1
Step 617000
Ar 1.118670e+00 0.000000e+00 0.000000e+00
1
Step 618000
Ar 1.067130e+00 0.000000e+00 0.000000e+00
1
Step 619000
Ar 1.133939e+00 0.000000e+00 0.000000e+00
1
Step 620000
Ar 1.184154e+00 0.000000e+00 0.000000e+00
1
Step 621000
Ar 1.079351e+00 0.000000e+00 0.000000e+00
1
Step 622000
Ar 1.124699e+00 0.000000e+00 0.000000e+00
1
Step 623000
Ar 1.242254e+00 0.000000e+00 0.000000e+00
1
Step 624000
Ar 1.262811e+00 0.000000e+00 0.000000e+00
1
Step 625000
Ar 1.487780e+00 0.000000e+00 0.000000e+00
1
Step 626000
Ar 1.434970e+00 0.000000e+00 0.000000e+00
1
Step 627000
Ar 1.405597e+00 0.000000e+00 0.000000e+00
1
Step 628000
Ar 1.446340e+00 0.000000e+00 0.000000e+00
1
Step 629000
Ar 1.423742e+00 0.000000e+00 0.000000e+00
1
Step 630000
Ar 1.462231e+00 0.000000e+00 0.000000e+00
1
Step 631000
Ar 1.512951e+00 0.000000e+00 0.000000e+00
1
Step 632000
Ar 1.531886e+00 0.000000e+00 0.000000e+00
1
Step 633000
Ar 1.472922e+00 0.000000e+00 0.000000e+00
1
Step 634000
Ar 1.557534e+00 0.000000e+00 0.000000e+00
1
Step 635000
Ar 1.374844e+00 0.000000e+00 0.000000e+00
1
Step 636000
Ar 1.414213e+00 0.000000e+00 0.000000e+00
1
Step 637000
Ar 1.401153e+00 0.000000e+00 0.000000e+00
1
Step 638000
Ar 1.322055e+00 0.000000e+00 0.000000e+00
1
Step 639000
Ar 1.442879e+00 0.000000e+00 0.000000e+00
1
Step 640000
Ar 1.430578e+00 0.000000e+00 0.000000e+00
1
Step 641000
Ar 1.450596e+00 0.000000e+00 0.000000e+00
1
Step 642000
Ar 1.381314e+00 0.000000e+00 0.000000e+00
1
Step 643000
Ar 1.411001e+00 0.000000e+00 0.000000e+00
1
Step 644000
Ar 1.305277e+00 0.000000e+00 0.000000e+00
1
Step 645000
Ar 1.335846e+00 0.000000e+00 0.000000e+00
1
Step 646000
Ar 1.348484e+00 0.000000e+00 0.000000e+00
1
Step 647000
Ar 1.295867e+00 0.000000e+00 0.000000e+00
1
Step 648000
Ar 1.371184e+00 0.000000e+00 0.000000e+00
1
Step 649000
Ar 1.358207e+00 0.000000e+00 0.000000e+00
1
Step 650000
Ar 1.100211e+00 0.000000e+00 0.000000e+00
1
Step 651000