1
Step 120000
Ar 8.785280e-01 0.000000e+00 0.000000e+00
1
Step 121000
Ar 8.794438e-01 0.000000e+00 0.000000e+00
1
Step 122000
Ar 6.447164e-01 0.000000e+00 0.000000e+00
1
Step 123000
Ar 3.247215e-01 0.000000e+00 0.000000e+00
1
Step 124000
Ar 4.889015e-01 0.000000e+00 0.000000e+00
1
Step 125000
Ar 5.209064e-01 0.000000e+00 0.000000e+00
1
Step 126000
Ar 3.958266e-01 0.000000e+00 0.000000e+00
1
Step 127000
Ar 4.091544e-01 0.000000e+00 0.000000e+00
1
Step 128000
Ar 7.233153e-01 0.000000e+00 0.000000e+00
1
Step 129000
Ar 8.950453e-01 0.000000e+00 0.000000e+00
1
Step 130000
Ar 7.238076e-01 0.000000e+00 0.000000e+00
1
Step 131000
Ar 7.945098e-01 0.000000e+00 0.000000e+00
1
Step 132000
Ar 7.425459e-01 0.000000e+00 0.000000e+00
1
Step 133000
Ar 7.426419e-01 0.000000e+00 0.000000e+00
1
Step 134000
Ar 7.577312e-01 0.000000e+00 0.000000e+00
1
Step 135000
Ar 8.012871e-01 0.000000e+00 0.000000e+00
1
Step 136000
Ar 8.034680e-01 0.000000e+00 0.000000e+00
1
Step 137000
Ar 6.543789e-01 0.000000e+00 0.000000e+00
1
Step 138000
Ar 5.993657e-01 0.000000e+00 0.000000e+00
1
Step 139000
Ar 6.514648e-01 0.000000e+00 0.000000e+00
1
Step 140000
Ar 5.439464e-01 0.000000e+00 0.000000e+00
1
Step 141000
Ar 6.999588e-01 0.000000e+00 0.000000e+00
1
Step 142000
Ar 7.049074e-01 0.000000e+00 0.000000e+00
1
Step 143000
Ar 7.863341e-01 0.000000e+00 0.000000e+00
1
Step 144000
Ar 7.543885e-01 0.000000e+00 0.000000e+00
1
Step 145000
Ar 7.434758e-01 0.000000e+00 0.000000e+00
1
Step 146000
Ar 7.666854e-01 0.000000e+00 0.000000e+00
1
Step 147000
Ar 7.669354e-01 0.000000e+00 0.000000e+00
1
Step 148000
Ar 7.713183e-01 0.000000e+00 0.000000e+00
1
Step 149000
Ar 6.559600e-01 0.000000e+00 0.000000e+00
1
Step 150000
Ar 6.504083e-01 0.000000e+00 0.000000e+00
1
Step 151000
Ar 5.149533e-01 0.000000e+00 0.000000e+00
1
Step 152000
Ar 5.169598e-01 0.000000e+00 0.000000e+00
1
Step 153000
Ar 2.896481e-01 0.000000e+00 0.000000e+00
1
Step 154000
Ar 4.717742e-01 0.000000e+00 0.000000e+00
1
Step 155000
Ar 6.663239e-02 0.000000e+00 0.000000e+00
1
Step 156000
Ar 4.556137e-01 0.000000e+00 0.000000e+00
1
Step 157000
Ar 4.207898e-01 0.000000e+00 0.000000e+00
1
Step 158000
Ar 4.670536e-01 0.000000e+00 0.000000e+00
1
Step 159000
Ar 4.792852e-01 0.000000e+00 0.000000e+00
1
Step 160000
Ar 4.743130e-01 0.000000e+00 0.000000e+00
1
Step 161000
Ar 6.923241e-03 0.000000e+00 0.000000e+00
1
Step 162000
Ar -1.047209e+00 0.000000e+00 0.000000e+00
1
Step 163000
Ar -1.010252e+00 0.000000e+00 0.000000e+00
1
Step 164000
Ar -9.714282e-01 0.000000e+00 0.000000e+00
1
Step 165000
Ar -9.629683e-01 0.000000e+00 0.000000e+00
1
Step 166000
Ar -9.285498e-01 0.000000e+00 0.000000e+00
1
Step 167000
Ar -9.133429e-01 0.000000e+00 0.000000e+00
1
Step 168000
Ar -9.200843e-01 0.000000e+00 0.000000e+00
1
Step 169000
Ar -9.970311e-01 0.000000e+00 0.000000e+00
1
Step 170000
Ar -1.059542e+00 0.000000e+00 0.000000e+00
1
Step 171000
Ar -1.136976e+00 0.000000e+00 0.000000e+00
1
Step 172000
Ar -1.124748e+00 0.000000e+00 0.000000e+00
1
Step 173000
Ar -1.132894e+00 0.000000e+00 0.000000e+00
1
Step 174000
Ar -1.233416e+00 0.000000e+00 0.000000e+00
1
Step 175000
Ar -1.165325e+00 0.000000e+00 0.000000e+00
1
Step 176000
Ar -1.044419e+00 0.000000e+00 0.000000e+00
1
Step 177000
Ar -1.080270e+00 0.000000e+00 0.000000e+00
1
Step 178000
Ar -1.150045e+00 0.000000e+00 0.000000e+00
1
Step 179000
Ar -1.165403e+00 0.000000e+00 0.000000e+00
1
Step 180000
Ar -1.050789e+00 0.000000e+00 0.000000e+00
1
Step 181000
Ar -1.041988e+00 0.000000e+00 0.000000e+00
1
Step 182000
Ar -1.011588e+00 0.000000e+00 0.000000e+00
1
Step 183000
Ar -8.604175e-01 0.000000e+00 0.000000e+00
1
Step 184000
Ar -8.601762e-01 0.000000e+00 0.000000e+00
1
Step 185000
Ar -8.693163e-01 0.000000e+00 0.000000e+00
1
Step 186000
Ar -1.080570e+00 0.000000e+00 0.000000e+00
1
Step 187000
Ar -1.151478e+00 0.000000e+00 0.000000e+00
1
Step 188000
Ar -1.137320e+00 0.000000e+00 0.000000e+00
1
Step 189000
Ar -1.148364e+00 0.000000e+00 0.000000e+00
1
Step 190000
Ar -1.244100e+00 0.000000e+00 0.000000e+00
1
Step 191000
Ar -1.236325e+00 0.000000e+00 0.000000e+00
1
Step 192000
Ar -1.180357e+00 0.000000e+00 0.000000e+00
1
Step 193000
Ar -1.082801e+00 0.000000e+00 0.000000e+00
1
Step 194000
Ar -1.087765e+00 0.000000e+00 0.000000e+00
1
Step 195000
Ar -1.089546e+00 0.000000e+00 0.000000e+00
1
Step 196000
Ar -1.087535e+00 0.000000e+00 0.000000e+00
1
Step 197000
Ar -9.573644e-01 0.000000e+00 0.000000e+00
1
Step 198000
Ar -9.639504e-01 0.000000e+00 0.000000e+00
1
Step 199000
Ar -9.705509e-01 0.000000e+00 0.000000e+00
1
Step 200000
Ar -1.033796e+00 0.000000e+00 0.000000e+00
1
Step 201000
Ar -1.025371e+00 0.000000e+00 0.000000e+00
1
Step 202000
Ar -7.272118e-01 0.000000e+00 0.000000e+00
1
Step 203000
Ar -5.979145e-01 0.000000e+00 0.000000e+00
1
Step 204000
Ar -6.226589e-01 0.000000e+00 0.000000e+00
1
Step 205000
Ar -6.095166e-01 0.000000e+00 0.000000e+00
1
Step 206000
Ar -8.605437e-01 0.000000e+00 0.000000e+00
1
Step 207000
Ar -8.386246e-01 0.000000e+00 0.000000e+00
1
Step 208000
Ar -8.617129e-01 0.000000e+00 0.000000e+00
1
Step 209000
Ar -7.303629e-01 0.000000e+00 0.000000e+00
1
Step 210000
Ar -1.023881e+00 0.000000e+00 0.000000e+00
1
Step 211000
Ar -1.055707e+00 0.000000e+00 0.000000e+00
1
Step 212000
Ar -1.014269e+00 0.000000e+00 0.000000e+00
1
Step 213000
Ar -8.402358e-01 0.000000e+00 0.000000e+00
1
Step 214000
Ar -8.384326e-01 0.000000e+00 0.000000e+00
1
Step 215000
Ar -8.577893e-01 0.000000e+00 0.000000e+00
1
Step 216000
Ar -8.376451e-01 0.000000e+00 0.000000e+00
1
Step 217000
Ar -7.502617e-01 0.000000e+00 0.000000e+00
1
Step 218000
Ar -8.724756e-01 0.000000e+00 0.000000e+00
1
Step 219000
Ar -8.038697e-01 0.000000e+00 0.000000e+00
1
Step 220000
Ar -7.831893e-01 0.000000e+00 0.000000e+00
1
Step 221000
Ar -7.827393e-01 0.000000e+00 0.000000e+00
1
Step 222000
Ar -6.791838e-01 0.000000e+00 0.000000e+00
1
Step 223000
Ar -7.255202e-01 0.000000e+00 0.000000e+00
1
Step 224000
Ar -4.639197e-01 0.000000e+00 0.000000e+00
1
Step 225000
Ar -5.201856e-01 0.000000e+00 0.000000e+00
1
Step 226000
Ar -5.257181e-01 0.000000e+00 0.000000e+00
1
Step 227000
Ar -2.818333e-01 0.000000e+00 0.000000e+00
1
Step 228000
Ar -4.940750e-01 0.000000e+00 0.000000e+00
1
Step 229000
Ar -6.535602e-01 0.000000e+00 0.000000e+00
1
Step 230000
Ar -6.737203e-01 0.000000e+00 0.000000e+00
1
Step 231000
Ar -5.392793e-01 0.000000e+00 0.000000e+00
1
Step 232000
Ar -5.226909e-01 0.000000e+00 0.000000e+00
1
Step 233000
Ar -7.192155e-01 0.000000e+00 0.000000e+00
1
Step 234000
Ar -6.111690e-01 0.000000e+00 0.000000e+00
1
Step 235000
Ar -3.949845e-01 0.000000e+00 0.000000e+00
1
Step 236000
Ar -6.696627e-01 0.000000e+00 0.000000e+00
1
Step 237000
Ar -4.547295e-01 0.000000e+00 0.000000e+00
1
Step 238000
Ar -4.381529e-01 0.000000e+00 0.000000e+00
1
Step 239000
Ar -4.430436e-01 0.000000e+00 0.000000e+00
1
Step 240000
Ar -3.067466e-01 0.000000e+00 0.000000e+00
1
Step 241000
Ar -4.614900e-01 0.000000e+00 0.000000e+00
1
Step 242000
Ar -3.958662e-01 0.000000e+00 0.000000e+00
1
Step 243000
Ar -4.418204e-01 0.000000e+00 0.000000e+00
1
Step 244000
Ar -4.350511e-01 0.000000e+00 0.000000e+00
1
Step 245000
Ar -6.438669e-01 0.000000e+00 0.000000e+00
1
Step 246000
Ar -6.011490e-01 0.000000e+00 0.000000e+00
1
Step 247000
Ar -6.158482e-01 0.000000e+00 0.000000e+00
1
Step 248000
Ar -7.563109e-01 0.000000e+00 0.000000e+00
1
Step 249000
Ar -7.984235e-01 0.000000e+00 0.000000e+00
1
Step 250000
Ar -8.321382e-01 0.000000e+00 0.000000e+00
1
Step 251000
Ar -8.593644e-01 0.000000e+00 0.000000e+00
1
Step 252000
Ar -9.165202e-01 0.000000e+00 0.000000e+00
1
Step 253000
Ar -7.733156e-01 0.000000e+00 0.000000e+00
1
Step 254000
Ar -7.827389e-01 0.000000e+00 0.000000e+00
1
Step 255000
Ar -7.795139e-01 0.000000e+00 0.000000e+00
1
Step 256000
Ar -8.765829e-01 0.000000e+00 0.000000e+00
1
Step 257000
Ar -9.064055e-01 0.000000e+00 0.000000e+00
1
Step 258000
Ar -9.549949e-01 0.000000e+00 0.000000e+00
1
Step 259000
Ar -1.004973e+00 0.000000e+00 0.000000e+00
1
Step 260000
Ar -1.129497e+00 0.000000e+00 0.000000e+00
1
Step 261000
Ar -1.137471e+00 0.000000e+00 0.000000e+00
1
Step 262000
Ar -1.126340e+00 0.000000e+00 0.000000e+00
1
Step 263000
Ar -1.132809e+00 0.000000e+00 0.000000e+00
1
Step 264000
Ar -1.087144e+00 0.000000e+00 0.000000e+00
1
Step 265000
Ar -1.103027e+00 0.000000e+00 0.000000e+00
1
Step 266000
Ar -1.134675e+00 0.000000e+00 0.000000e+00
1
Step 267000
Ar -1.286681e+00 0.000000e+00 0.000000e+00
1
Step 268000
Ar -1.354568e+00 0.000000e+00 0.000000e+00
1
Step 269000
Ar -1.297533e+00 0.000000e+00 0.000000e+00
1
Step 270000
Ar -1.282343e+00 0.000000e+00 0.000000e+00
1
Step 271000
Ar -1.264573e+00 0.000000e+00 0.000000e+00
1
Step 272000
Ar -1.304840e+00 0.000000e+00 0.000000e+00
1
Step 273000
Ar -1.351783e+00 0.000000e+00 0.000000e+00
1
Step 274000
Ar -1.346393e+00 0.000000e+00 0.000000e+00
1
Step 275000
Ar -1.290434e+00 0.000000e+00 0.000000e+00
1
Step 276000
Ar -1.246705e+00 0.000000e+00 0.000000e+00
1
Step 277000
Ar -1.359046e+00 0.000000e+00 0.000000e+00
1
Step 278000
Ar -1.359192e+00 0.000000e+00 0.000000e+00
1
Step 279000
Ar -1.413944e+00 0.000000e+00 0.000000e+00
1
Step 280000
Ar -1.285473e+00 0.000000e+00 0.000000e+00
1
Step 281000
Ar -1.308216e+00 0.000000e+00 0.000000e+00
1
Step 282000
Ar -1.243828e+00 0.000000e+00 0.000000e+00
1
Step 283000
Ar -1.168057e+00 0.000000e+00 0.000000e+00
1
Step 284000
Ar -1.166482e+00 0.000000e+00 0.000000e+00
1
Step 285000
Ar -1.213870e+00 0.000000e+00 0.000000e+00
1
Step 286000
Ar -1.212669e+00 0.000000e+00 0.000000e+00
1
Step 287000
Ar -9.866363e-01 0.000000e+00 0.000000e+00
1
Step 288000
Ar -1.068087e+00 0.000000e+00 0.000000e+00
1
Step 289000
Ar -1.129764e+00 0.000000e+00 0.000000e+00
1
Step 290000
Ar -1.097224e+00 0.000000e+00 0.000000e+00
1
Step 291000
Ar -1.150020e+00 0.000000e+00 0.000000e+00
1
Step 292000
Ar -1.009814e+00 0.000000e+00 0.000000e+00
1
Step 293000
Ar -1.030943e+00 0.000000e+00 0.000000e+00
1
Step 294000
Ar -9.136063e-01 0.000000e+00 0.000000e+00
1
Step 295000
Ar -9.056772e-01 0.000000e+00 0.000000e+00
1
Step 296000
Ar -9.077330e-01 0.000000e+00 0.000000e+00
1
Step 297000
Ar -9.068438e-01 0.000000e+00 0.000000e+00
1
Step 298000
Ar -7.453715e-01 0.000000e+00 0.000000e+00
1
Step 299000
Ar -7.473571e-01 0.000000e+00 0.000000e+00
1
Step 300000
Ar -6.162577e-01 0.000000e+00 0.000000e+00
1
Step 301000
Ar -6.340496e-01 0.000000e+00 0.000000e+00
1
Step 302000
Ar -7.061151e-01 0.000000e+00 0.000000e+00
1
Step 303000
Ar -6.152308e-01 0.000000e+00 0.000000e+00
1
Step 304000
Ar -4.341143e-01 0.000000e+00 0.000000e+00
1
Step 305000
Ar -4.375220e-01 0.000000e+00 0.000000e+00
1
Step 306000
Ar -5.519602e-01 0.000000e+00 0.000000e+00
1
Step 307000
Ar -5.314418e-01 0.000000e+00 0.000000e+00
1
Step 308000
Ar -5.234480e-01 0.000000e+00 0.000000e+00
1
Step 309000
Ar -4.556593e-01 0.000000e+00 0.000000e+00
1
Step 310000
Ar -5.669184e-01 0.000000e+00 0.000000e+00
1
Step 311000
Ar -4.361788e-01 0.000000e+00 0.000000e+00
1
Step 312000
Ar -4.176698e-01 0.000000e+00 0.000000e+00
1
Step 313000
Ar -5.504357e-01 0.000000e+00 0.000000e+00
1
Step 314000
Ar -5.448859e-01 0.000000e+00 0.000000e+00
1
Step 315000
Ar -5.367462e-01 0.000000e+00 0.000000e+00
1
Step 316000
Ar -2.281741e-01 0.000000e+00 0.000000e+00
1
Step 317000
Ar -2.413978e-01 0.000000e+00 0.000000e+00
1
Step 318000
Ar -9.898593e-02 0.000000e+00 0.000000e+00
1
Step 319000
Ar 1.394696e-01 0.000000e+00 0.000000e+00
1
Step 320000
Ar -1.674010e-02 0.000000e+00 0.000000e+00
1
Step 321000
Ar 2.252279e-01 0.000000e+00 0.000000e+00
1
Step 322000
Ar 2.029531e-01 0.000000e+00 0.000000e+00
1
Step 323000
Ar 3.697336e-01 0.000000e+00 0.000000e+00
1
Step 324000
Ar 3.986074e-01 0.000000e+00 0.000000e+00
1
Step 325000
Ar 3.065508e-01 0.000000e+00 0.000000e+00
1
Step 326000
Ar 3.996932e-01 0.000000e+00 0.000000e+00
1
Step 327000
Ar 3.959560e-01 0.000000e+00 0.000000e+00
1
Step 328000
Ar 3.630546e-01 0.000000e+00 0.000000e+00
1
Step 329000
Ar 3.669622e-01 0.000000e+00 0.000000e+00
1
Step 330000
Ar 6.781750e-01 0.000000e+00 0.000000e+00
1
Step 331000
Ar 6.020930e-01 0.000000e+00 0.000000e+00
1
Step 332000
Ar 5.839582e-01 0.000000e+00 0.000000e+00
1
Step 333000
Ar 7.598664e-01 0.000000e+00 0.000000e+00
1
Step 334000
Ar 6.052974e-01 0.000000e+00 0.000000e+00
1
Step 335000
Ar 7.046755e-01 0.000000e+00 0.000000e+00
1
Step 336000
Ar 1.045538e+00 0.000000e+00 0.000000e+00
1
Step 337000
Ar 1.004747e+00 0.000000e+00 0.000000e+00
1
Step 338000
Ar 9.287631e-01 0.000000e+00 0.000000e+00
1
Step 339000
Ar 1.010961e+00 0.000000e+00 0.000000e+00
1
Step 340000
Ar 9.944475e-01 0.000000e+00 0.000000e+00
1
Step 341000
Ar 1.006354e+00 0.000000e+00 0.000000e+00
1
Step 342000
Ar 1.036705e+00 0.000000e+00 0.000000e+00
1
Step 343000
Ar 1.004412e+00 0.000000e+00 0.000000e+00
1
Step 344000
Ar 1.216755e+00 0.000000e+00 0.000000e+00
1
Step 345000
Ar 1.231790e+00 0.000000e+00 0.000000e+00
1
Step 346000
Ar 1.067210e+00 0.000000e+00 0.000000e+00
1
Step 347000
Ar 1.126215e+00 0.000000e+00 0.000000e+00
1
Step 348000
Ar 1.135638e+00 0.000000e+00 0.000000e+00
1
Step 349000
Ar 1.181533e+00 0.000000e+00 0.000000e+00
1
Step 350000
Ar 1.266770e+00 0.000000e+00 0.000000e+00
1
Step 351000
Ar 1.214182e+00 0.000000e+00 0.000000e+00
1
Step 352000
Ar 1.220541e+00 0.000000e+00 0.000000e+00
1
Step 353000
Ar 1.334054e+00 0.000000e+00 0.000000e+00
1
Step 354000
Ar 1.327657e+00 0.000000e+00 0.000000e+00
1
Step 355000
Ar 1.327134e+00 0.000000e+00 0.000000e+00
1
Step 356000
Ar 1.294271e+00 0.000000e+00 0.000000e+00
1
Step 357000
Ar 1.279241e+00 0.000000e+00 0.000000e+00
1
Step 358000
Ar 1.289610e+00 0.000000e+00 0.000000e+00
1
Step 359000
Ar 1.300993e+00 0.000000e+00 0.000000e+00
1
Step 360000
Ar 1.242999e+00 0.000000e+00 0.000000e+00
1
Step 361000
Ar 1.114892e+00 0.000000e+00 0.000000e+00
1
Step 362000
Ar 1.121322e+00 0.000000e+00 0.000000e+00
1
Step 363000
Ar 1.139599e+00 0.000000e+00 0.000000e+00
1
Step 364000
Ar 9.627668e-01 0.000000e+00 0.000000e+00
1
Step 365000
Ar 9.534467e-01 0.000000e+00 0.000000e+00
1
Step 366000
Ar 9.412949e-01 0.000000e+00 0.000000e+00
1
Step 367000
Ar 9.562885e-01 0.000000e+00 0.000000e+00
1
Step 368000
Ar 9.373807e-01 0.000000e+00 0.000000e+00
1
Step 369000
Ar 9.407115e-01 0.000000e+00 0.000000e+00
1
Step 370000
Ar 9.837266e-01 0.000000e+00 0.000000e+00
1
Step 371000
Ar 9.829742e-01 0.000000e+00 0.000000e+00
1
Step 372000
Ar 1.015744e+00 0.000000e+00 0.000000e+00
1
Step 373000
Ar 8.891876e-01 0.000000e+00 0.000000e+00
1
Step 374000
Ar 8.732830e-01 0.000000e+00 0.000000e+00
1
Step 375000
Ar 8.897925e-01 0.000000e+00 0.000000e+00
1
Step 376000
Ar 1.087784e+00 0.000000e+00 0.000000e+00
1
Step 377000
Ar 9.500014e-01 0.000000e+00 0.000000e+00
1
Step 378000
Ar 1.115823e+00 0.000000e+00 0.000000e+00
1
Step 379000
Ar 1.003911e+00 0.000000e+00 0.000000e+00
1
Step 380000
Ar 9.698384e-01 0.000000e+00 0.000000e+00
1
Step 381000
Ar 1.075403e+00 0.000000e+00 0.000000e+00
1
Step 382000
Ar 9.177820e-01 0.000000e+00 0.000000e+00
1
Step 383000
Ar 9.166928e-01 0.000000e+00 0.000000e+00
1
Step 384000
Ar 8.559191e-01 0.000000e+00 0.000000e+00
1
Step 385000
Ar 1.001769e+00 0.000000e+00 0.000000e+00
1
Step 386000
Ar 1.002098e+00 0.000000e+00 0.000000e+00
1
Step 387000
Ar 9.940632e-01 0.000000e+00 0.000000e+00
1
Step 388000
Ar 1.009686e+00 0.000000e+00 0.000000e+00
1
Step 389000
Ar 1.121014e+00 0.000000e+00 0.000000e+00
1
Step 390000
Ar 1.097921e+00 0.000000e+00 0.000000e+00
1
Step 391000
Ar 1.106289e+00 0.000000e+00 0.000000e+00
1
Step 392000
Ar 1.243160e+00 0.000000e+00 0.000000e+00
1
Step 393000
Ar 8.812405e-01 0.000000e+00 0.000000e+00
1
Step 394000
Ar 1.049260e+00 0.000000e+00 0.000000e+00
1
Step 395000
Ar 9.377306e-01 0.000000e+00 0.000000e+00
1
Step 396000
Ar 1.042498e+00 0.000000e+00 0.000000e+00
1
Step 397000
Ar 1.044002e+00 0.000000e+00 0.000000e+00
1
Step 398000
Ar 9.918029e-01 0.000000e+00 0.000000e+00
1
Step 399000
Ar 9.756381e-01 0.000000e+00 0.000000e+00
1
Step 400000
Ar 8.506361e-01 0.000000e+00 0.000000e+00
1
Step 401000
Ar 8.057892e-01 0.000000e+00 0.000000e+00
1
Step 402000
Ar 7.551099e-01 0.000000e+00 0.000000e+00
1
Step 403000
Ar 7.720506e-01 0.000000e+00 0.000000e+00
1
Step 404000
Ar 5.819098e-01 0.000000e+00 0.000000e+00
1
Step 405000
Ar 6.652210e-01 0.000000e+00 0.000000e+00
1
Step 406000
Ar 6.880976e-01 0.000000e+00 0.000000e+00
1
Step 407000
Ar 7.765183e-01 0.000000e+00 0.000000e+00
1
Step 408000
Ar 7.864192e-01 0.000000e+00 0.000000e+00
1
Step 409000
Ar 8.272240e-01 0.000000e+00 0.000000e+00
1
Step 410000
Ar 8.321336e-01 0.000000e+00 0.000000e+00
1
Step 411000
Ar 9.810771e-01 0.000000e+00 0.000000e+00
1
Step 412000
Ar 9.535510e-01 0.000000e+00 0.000000e+00
1
Step 413000
Ar 9.688749e-01 0.000000e+00 0.000000e+00
1
Step 414000
Ar 9.746244e-01 0.000000e+00 0.000000e+00
1
Step 415000
Ar 1.093037e+00 0.000000e+00 0.000000e+00
1
Step 416000
Ar 1.091917e+00 0.000000e+00 0.000000e+00
1
Step 417000
Ar 1.354247e+00 0.000000e+00 0.000000e+00
1
Step 418000
Ar 1.347535e+00 0.000000e+00 0.000000e+00
1
Step 419000
Ar 1.360549e+00 0.000000e+00 0.000000e+00
1
Step 420000
Ar 9.910180e-01 0.000000e+00 0.000000e+00
1
Step 421000
Ar 1.052100e+00 0.000000e+00 0.000000e+00
1
Step 422000
Ar 1.384640e+00 0.000000e+00 0.000000e+00
1
Step 423000
Ar 1.500761e+00 0.000000e+00 0.000000e+00
1
Step 424000
Ar 1.423290e+00 0.000000e+00 0.000000e+00
1
Step 425000
Ar 1.469909e+00 0.000000e+00 0.000000e+00
1
Step 426000
Ar 1.000175e+00 0.000000e+00 0.000000e+00
1
Step 427000
Ar 1.016924e+00 0.000000e+00 0.000000e+00
1
Step 428000
Ar 1.121737e+00 0.000000e+00 0.000000e+00
1
Step 429000
Ar 1.120573e+00 0.000000e+00 0.000000e+00
1
Step 430000
Ar 1.211213e+00 0.000000e+00 0.000000e+00
1
Step 431000
Ar 1.202404e+00 0.000000e+00 0.000000e+00
1
Step 432000
Ar 1.132467e+00 0.000000e+00 0.000000e+00
1
Step 433000
Ar 1.201470e+00 0.000000e+00 0.000000e+00
1
Step 434000
Ar 1.222380e+00 0.000000e+00 0.000000e+00
1
Step 435000
Ar 1.160684e+00 0.000000e+00 0.000000e+00
1
Step 436000
Ar 1.214679e+00 0.000000e+00 0.000000e+00
1
Step 437000
Ar 1.283360e+00 0.000000e+00 0.000000e+00
1
Step 438000
Ar 1.054693e+00 0.000000e+00 0.000000e+00
1
Step 439000
Ar 1.066383e+00 0.000000e+00 0.000000e+00
1
Step 440000
Ar 9.182023e-01 0.000000e+00 0.000000e+00
1
Step 441000
Ar 9.338801e-01 0.000000e+00 0.000000e+00
1
Step 442000
Ar 9.725365e-01 0.000000e+00 0.000000e+00
1
Step 443000
Ar 1.119131e+00 0.000000e+00 0.000000e+00
1
Step 444000
Ar 1.095539e+00 0.000000e+00 0.000000e+00
1
Step 445000
Ar 1.096010e+00 0.000000e+00 0.000000e+00
1
Step 446000
Ar 1.075290e+00 0.000000e+00 0.000000e+00
1
Step 447000
Ar 1.382252e+00 0.000000e+00 0.000000e+00
1
Step 448000
Ar 1.343900e+00 0.000000e+00 0.000000e+00
1
Step 449000
Ar 1.178474e+00 0.000000e+00 0.000000e+00
1
Step 450000
Ar 1.205152e+00 0.000000e+00 0.000000e+00
1
Step 451000
Ar 1.247454e+00 0.000000e+00 0.000000e+00
1
Step 452000
Ar 1.285433e+00 0.000000e+00 0.000000e+00
1
Step 453000
Ar 1.119165e+00 0.000000e+00 0.000000e+00
1
Step 454000
Ar 1.185698e+00 0.000000e+00 0.000000e+00
1
Step 455000
Ar 1.139926e+00 0.000000e+00 0.000000e+00
1
Step 456000
Ar 4.815202e-01 0.000000e+00 0.000000e+00
1
Step 457000
Ar 5.205209e-01 0.000000e+00 0.000000e+00
1
Step 458000
Ar 6.257813e-01 0.000000e+00 0.000000e+00
1
Step 459000
Ar 6.264091e-01 0.000000e+00 0.000000e+00
1
Step 460000
Ar 6.273596e-01 0.000000e+00 0.000000e+00
1
Step 461000
Ar 7.816710e-01 0.000000e+00 0.000000e+00
1
Step 462000
Ar 7.855429e-01 0.000000e+00 0.000000e+00
1
Step 463000
Ar 7.952272e-01 0.000000e+00 0.000000e+00
1
Step 464000
Ar 8.182065e-01 0.000000e+00 0.000000e+00
1
Step 465000
Ar 8.866543e-01 0.000000e+00 0.000000e+00
1
Step 466000
Ar 8.991102e-01 0.000000e+00 0.000000e+00
1
Step 467000
Ar 8.538639e-01 0.000000e+00 0.000000e+00
1
Step 468000
Ar 8.682493e-01 0.000000e+00 0.000000e+00
1
Step 469000
Ar 8.618044e-01 0.000000e+00 0.000000e+00
1
Step 470000
Ar 8.710440e-01 0.000000e+00 0.000000e+00
1
Step 471000
Ar 8.666236e-01 0.000000e+00 0.000000e+00
1
Step 472000
Ar 9.943291e-01 0.000000e+00 0.000000e+00
1
Step 473000
Ar 1.223680e+00 0.000000e+00 0.000000e+00
1
Step 474000
Ar 1.226809e+00 0.000000e+00 0.000000e+00
1
Step 475000
Ar 1.302366e+00 0.000000e+00 0.000000e+00
1
Step 476000
Ar 1.455495e+00 0.000000e+00 0.000000e+00
1
Step 477000
Ar 1.474922e+00 0.000000e+00 0.000000e+00
1
Step 478000
Ar 1.470849e+00 0.000000e+00 0.000000e+00
1
Step 479000
Ar 1.481981e+00 0.000000e+00 0.000000e+00
1
Step 480000
Ar 1.392423e+00 0.000000e+00 0.000000e+00
1
Step 481000
Ar 1.489758e+00 0.000000e+00 0.000000e+00
1
Step 482000
Ar 1.300402e+00 0.000000e+00 0.000000e+00
1
Step 483000
Ar 1.298443e+00 0.000000e+00 0.000000e+00
1
Step 484000
Ar 1.291743e+00 0.000000e+00 0.000000e+00
1
Step 485000
Ar 1.285650e+00 0.000000e+00 0.000000e+00
1
Step 486000
Ar 1.293284e+00 0.000000e+00 0.000000e+00
1
Step 487000
Ar 1.341235e+00 0.000000e+00 0.000000e+00
1
Step 488000
Ar 1.339644e+00 0.000000e+00 0.000000e+00
1
Step 489000
Ar 1.334383e+00 0.000000e+00 0.000000e+00
1
Step 490000
Ar 1.326439e+00 0.000000e+00 0.000000e+00
1
Step 491000
Ar 1.114066e+00 0.000000e+00 0.000000e+00
1
Step 492000
Ar 1.153587e+00 0.000000e+00 0.000000e+00
1
Step 493000
Ar 1.025165e+00 0.000000e+00 0.000000e+00
1
Step 494000
Ar 1.103719e+00 0.000000e+00 0.000000e+00
1
Step 495000
Ar 1.098470e+00 0.000000e+00 0.000000e+00
1
Step 496000
Ar 1.165491e+00 0.000000e+00 0.000000e+00
1
Step 497000
Ar 1.180639e+00 0.000000e+00 0.000000e+00
1
Step 498000
Ar 1.166555e+00 0.000000e+00 0.000000e+00
1
Step 499000
Ar 9.347142e-01 0.000000e+00 0.000000e+00
1
Step 500000
Ar 9.713792e-01 0.000000e+00 0.000000e+00
1
Step 501000
Ar 9.719391e-01 0.000000e+00 0.000000e+00
1
Step 502000
Ar 1.089971e+00 0.000000e+00 0.000000e+00
1
Step 503000
Ar 1.095743e+00 0.000000e+00 0.000000e+00
1
Step 504000
Ar 1.393142e+00 0.000000e+00 0.000000e+00
1
Step 505000
Ar 1.379969e+00 0.000000e+00 0.000000e+00
1
Step 506000
Ar 1.473709e+00 0.000000e+00 0.000000e+00
1
Step 507000
Ar 1.511963e+00 0.000000e+00 0.000000e+00
1
Step 508000
Ar 1.505985e+00 0.000000e+00 0.000000e+00
1
Step 509000
Ar 1.480163e+00 0.000000e+00 0.000000e+00
1
Step 510000
Ar 1.501062e+00 0.000000e+00 0.000000e+00
1
Step 511000
Ar 1.500055e+00 0.000000e+00 0.000000e+00
1
Step 512000
Ar 1.191908e+00 0.000000e+00 0.000000e+00
1
Step 513000
Ar 1.181264e+00 0.000000e+00 0.000000e+00
1
Step 514000
Ar 1.131317e+00 0.000000e+00 0.000000e+00
1
Step 515000
Ar 1.068921e+00 0.000000e+00 0.000000e+00
1
Step 516000
Ar 1.065766e+00 0.000000e+00 0.000000e+00
1
Step 517000
Ar 9.321713e-01 0.000000e+00 0.000000e+00
1
Step 518000
Ar 9.697055e-01 0.000000e+00 0.000000e+00
1
Step 519000
Ar 9.347514e-01 0.000000e+00 0.000000e+00
1
Step 520000
Ar 1.054254e+00 0.000000e+00 0.000000e+00
1
Step 521000
Ar 1.008867e+00 0.000000e+00 0.000000e+00
1
Step 522000
Ar 9.744771e-01 0.000000e+00 0.000000e+00
1
Step 523000
Ar 1.000210e+00 0.000000e+00 0.000000e+00
1
Step 524000
Ar 1.014588e+00 0.000000e+00 0.000000e+00
1
Step 525000
Ar 1.012032e+00 0.000000e+00 0.000000e+00
1
Step 526000
Ar 1.267787e+00 0.000000e+00 0.000000e+00
1
Step 527000
Ar 1.248807e+00 0.000000e+00 0.000000e+00
1
Step 528000
Ar 1.268002e+00 0.000000e+00 0.000000e+00
1
Step 529000
Ar 1.269149e+00 0.000000e+00 0.000000e+00
1
Step 530000
Ar 1.316755e+00 0.000000e+00 0.000000e+00
1
Step 531000
Ar 1.416630e+00 0.000000e+00 0.000000e+00
1
Step 532000
Ar 1.445655e+00 0.000000e+00 0.000000e+00
1
Step 533000
Ar 1.441832e+00 0.000000e+00 0.000000e+00
1
Step 534000
Ar 1.499902e+00 0.000000e+00 0.000000e+00
1
Step 535000
Ar 1.527194e+00 0.000000e+00 0.000000e+00
1
Step 536000
Ar 1.566970e+00 0.000000e+00 0.000000e+00
1
Step 537000
Ar 1.534793e+00 0.000000e+00 0.000000e+00
1
Step 538000
Ar 1.452832e+00 0.000000e+00 0.000000e+00
1
Step 539000
Ar 1.474314e+00 0.000000e+00 0.000000e+00
1
Step 540000
Ar 1.490772e+00 0.000000e+00 0.000000e+00
1
Step 541000
Ar 1.096646e+00 0.000000e+00 0.000000e+00
1
Step 542000
Ar 7.104121e-01 0.000000e+00 0.000000e+00
1
Step 543000
Ar 5.857426e-01 0.000000e+00 0.000000e+00
1
Step 544000
Ar 5.815459e-01 0.000000e+00 0.000000e+00
1
Step 545000
Ar 5.816050e-01 0.000000e+00 0.000000e+00
1
Step 546000
Ar 5.182099e-01 0.000000e+00 0.000000e+00
1
Step 547000
Ar 2.341343e-01 0.000000e+00 0.000000e+00
1
Step 548000
Ar 2.408634e-01 0.000000e+00 0.000000e+00
1
Step 549000
Ar 2.445475e-01 0.000000e+00 0.000000e+00
1
Step 550000
Ar 4.481527e-01 0.000000e+00 0.000000e+00
1
Step 551000
Ar 4.398532e-01 0.000000e+00 0.000000e+00
1
Step 552000
Ar 4.796548e-01 0.000000e+00 0.000000e+00
1
Step 553000
Ar 5.011595e-01 0.000000e+00 0.000000e+00
1
Step 554000
Ar 4.418276e-01 0.000000e+00 0.000000e+00
1
Step 555000
Ar 3.049893e-01 0.000000e+00 0.000000e+00
1
Step 556000
Ar 2.413554e-01 0.000000e+00 0.000000e+00
1
Step 557000
Ar 2.527371e-01 0.000000e+00 0.000000e+00
1
Step 558000
Ar 2.510816e-01 0.000000e+00 0.000000e+00
1
Step 559000
Ar 2.483546e-01 0.000000e+00 0.000000e+00
1
Step 560000
Ar 2.401767e-01 0.000000e+00 0.000000e+00
1
Step 561000
Ar 2.450893e-01 0.000000e+00 0.000000e+00
1
Step 562000
Ar -1.692362e-04 0.000000e+00 0.000000e+00
1
Step 563000
Ar 1.176392e-01 0.000000e+00 0.000000e+00
1
Step 564000
Ar 6.673045e-02 0.000000e+00 0.000000e+00
1
Step 565000
Ar -1.663908e-01 0.000000e+00 0.000000e+00
1
Step 566000
Ar -1.031349e-01 0.000000e+00 0.000000e+00
1
Step 567000
Ar -6.206497e-02 0.000000e+00 0.000000e+00
1
Step 568000
Ar -6.185939e-02 0.000000e+00 0.000000e+00
1
Step 569000
Ar 4.076784e-02 0.000000e+00 0.000000e+00
1
Step 570000
Ar 1.733506e-01 0.000000e+00 0.000000e+00
1
Step 571000
Ar 1.232561e-01 0.000000e+00 0.000000e+00
1
Step 572000
Ar 5.412223e-02 0.000000e+00 0.000000e+00
1
Step 573000
Ar 8.326751e-03 0.000000e+00 0.000000e+00
1
Step 574000
Ar 6.834810e-02 0.000000e+00 0.000000e+00
1
Step 575000
Ar -2.096299e-02 0.000000e+00 0.000000e+00
1
Step 576000
Ar 3.246518e-02 0.000000e+00 0.000000e+00
1
Step 577000
Ar 4.815513e-02 0.000000e+00 0.000000e+00
1
Step 578000
Ar 6.359519e-04 0.000000e+00 0.000000e+00
1
Step 579000
Ar -1.386392e-01 0.000000e+00 0.000000e+00
1
Step 580000
Ar -1.906214e-01 0.000000e+00 0.000000e+00
1
Step 581000
Ar -4.543531e-01 0.000000e+00 0.000000e+00
1
Step 582000
Ar -4.661580e-01 0.000000e+00 0.000000e+00
1
Step 583000
Ar -3.159247e-01 0.000000e+00 0.000000e+00
1
Step 584000
Ar -3.160427e-01 0.000000e+00 0.000000e+00
1
Step 585000
Ar -3.175785e-01 0.000000e+00 0.000000e+00
1
Step 586000
Ar -3.333582e-01 0.000000e+00 0.000000e+00
1
Step 587000
Ar -4.718342e-01 0.000000e+00 0.000000e+00
1
Step 588000
Ar -3.793322e-01 0.000000e+00 0.000000e+00
1
Step 589000
Ar -5.414050e-01 0.000000e+00 0.000000e+00
1
Step 590000
Ar -8.932632e-01 0.000000e+00 0.000000e+00
1
Step 591000
Ar -8.153520e-01 0.000000e+00 0.000000e+00
1
Step 592000
Ar -8.707710e-01 0.000000e+00 0.000000e+00
1
Step 593000
Ar -8.544165e-01 0.000000e+00 0.000000e+00
1
Step 594000
Ar -8.549580e-01 0.000000e+00 0.000000e+00
1
Step 595000
Ar -8.126887e-01 0.000000e+00 0.000000e+00
1
Step 596000
Ar -8.080466e-01 0.000000e+00 0.000000e+00
1
Step 597000
Ar -8.261067e-01 0.000000e+00 0.000000e+00
1
Step 598000
Ar -8.215991e-01 0.000000e+00 0.000000e+00
1
Step 599000
Ar -7.347830e-01 0.000000e+00 0.000000e+00
1
Step 600000
Ar -7.067129e-01 0.000000e+00 0.000000e+00
1
Step 601000
Ar -7.530686e-01 0.000000e+00 0.000000e+00
1
Step 602000
Ar -1.007005e+00 0.000000e+00 0.000000e+00
1
Step 603000
Ar -9.202535e-01 0.000000e+00 0.000000e+00
1
Step 604000
Ar -9.732498e-01 0.000000e+00 0.000000e+00
1
Step 605000
Ar -9.733931e-01 0.000000e+00 0.000000e+00
1
Step 606000
Ar -9.869326e-01 0.000000e+00 0.000000e+00
1
Step 607000
Ar -9.120246e-01 0.000000e+00 0.000000e+00
1
Step 608000
Ar -1.134843e+00 0.000000e+00 0.000000e+00
1
Step 609000
Ar -1.129903e+00 0.000000e+00 0.000000e+00
1
Step 610000
Ar -1.148111e+00 0.000000e+00 0.000000e+00
1
Step 611000
Ar -1.046260e+00 0.000000e+00 0.000000e+00
1
Step 612000
Ar -1.131421e+00 0.000000e+00 0.000000e+00
1
Step 613000
Ar -1.131626e+00 0.000000e+00 0.000000e+00
1
Step 614000
Ar -1.038197e+00 0.000000e+00 0.000000e+00
1
Step 615000
Ar -1.047091e+00 0.000000e+00 0.000000e+00
1
Step 616000
Ar -1.036742e+00 0.000000e+00 0.000000e+00
1
Step 617000
Ar -1.119704e+00 0.000000e+00 0.000000e+00
1
Step 618000
Ar -1.114426e+00 0.000000e+00 0.000000e+00
1
Step 619000
Ar -1.104059e+00 0.000000e+00 0.000000e+00
1
Step 620000
Ar -1.109684e+00 0.000000e+00 0.000000e+00
1
Step 621000
Ar -1.354667e+00 0.000000e+00 0.000000e+00
1
Step 622000
Ar -1.357272e+00 0.000000e+00 0.000000e+00
1
Step 623000
Ar -1.407126e+00 0.000000e+00 0.000000e+00
1
Step 624000
Ar -1.461963e+00 0.000000e+00 0.000000e+00
1
Step 625000
Ar -1.274266e+00 0.000000e+00 0.000000e+00
1
Step 626000
Ar -1.278479e+00 0.000000e+00 0.000000e+00
1
Step 627000
Ar -1.238901e+00 0.000000e+00 0.000000e+00
1
Step 628000
Ar -1.283522e+00 0.000000e+00 0.000000e+00
1
Step 629000
Ar -1.295133e+00 0.000000e+00 0.000000e+00
1
Step 630000
Ar -1.253333e+00 0.000000e+00 0.000000e+00
1
Step 631000
Ar -1.256816e+00 0.000000e+00 0.000000e+00
1
Step 632000
Ar -1.420798e+00 0.000000e+00 0.000000e+00
1
Step 633000
Ar -1.320508e+00 0.000000e+00 0.000000e+00
1
Step 634000
Ar -1.317899e+00 0.000000e+00 0.000000e+00
1
Step 635000
Ar -1.320158e+00 0.000000e+00 0.000000e+00
1
Step 636000
Ar -1.398636e+00 0.000000e+00 0.000000e+00
1
Step 637000
Ar -1.390113e+00 0.000000e+00 0.000000e+00
1
Step 638000
Ar -1.399000e+00 0.000000e+00 0.000000e+00
1
Step 639000
Ar -1.486481e+00 0.000000e+00 0.000000e+00
1
Step 640000
Ar -1.447534e+00 0.000000e+00 0.000000e+00
1
Step 641000
Ar -1.455399e+00 0.000000e+00 0.000000e+00
1
Step 642000
Ar -1.511656e+00 0.000000e+00 0.000000e+00
1
Step 643000
Ar -1.138471e+00 0.000000e+00 0.000000e+00
1
Step 644000
Ar -1.166091e+00 0.000000e+00 0.000000e+00
1
Step 645000
Ar -9.889885e-01 0.000000e+00 0.000000e+00
1
Step 646000
Ar -9.560864e-01 0.000000e+00 0.000000e+00
1
Step 647000
Ar -9.570778e-01 0.000000e+00 0.000000e+00
1
Step 648000
Ar -1.108675e+00 0.000000e+00 0.000000e+00
1
Step 649000
Ar -1.110238e+00 0.000000e+00 0.000000e+00
1
Step 650000
Ar -1.100313e+00 0.000000e+00 0.000000e+00
1
Step 651000