1
Step 120000
Ar 9.979195e-01 0.000000e+00 0.000000e+00
1
Step 121000
Ar 9.930691e-01 0.000000e+00 0.000000e+00
1
Step 122000
Ar 1.013275e+00 0.000000e+00 0.000000e+00
1
Step 123000
Ar 1.021761e+00 0.000000e+00 0.000000e+00
1
Step 124000
Ar 9.961870e-01 0.000000e+00 0.000000e+00
1
Step 125000
Ar 9.967504e-01 0.000000e+00 0.000000e+00
1
Step 126000
Ar 1.022463e+00 0.000000e+00 0.000000e+00
1
Step 127000
Ar 1.022285e+00 0.000000e+00 0.000000e+00
1
Step 128000
Ar 9.840342e-01 0.000000e+00 0.000000e+00
1
Step 129000
Ar 9.834219e-01 0.000000e+00 0.000000e+00
1
Step 130000
Ar 9.560427e-01 0.000000e+00 0.000000e+00
1
Step 131000
Ar 9.495930e-01 0.000000e+00 0.000000e+00
1
Step 132000
Ar 9.615043e-01 0.000000e+00 0.000000e+00
1
Step 133000
Ar 9.575922e-01 0.000000e+00 0.000000e+00
1
Step 134000
Ar 1.016405e+00 0.000000e+00 0.000000e+00
1
Step 135000
Ar 1.023680e+00 0.000000e+00 0.000000e+00
1
Step 136000
Ar 1.019984e+00 0.000000e+00 0.000000e+00
1
Step 137000
Ar 1.027368e+00 0.000000e+00 0.000000e+00
1
Step 138000
Ar 1.022641e+00 0.000000e+00 0.000000e+00
1
Step 139000
Ar 1.019863e+00 0.000000e+00 0.000000e+00
1
Step 140000
Ar 1.024979e+00 0.000000e+00 0.000000e+00
1
Step 141000
Ar 1.019169e+00 0.000000e+00 0.000000e+00
1
Step 142000
Ar 1.023120e+00 0.000000e+00 0.000000e+00
1
Step 143000
Ar 1.029558e+00 0.000000e+00 0.000000e+00
1
Step 144000
Ar 1.020001e+00 0.000000e+00 0.000000e+00
1
Step 145000
Ar 1.038006e+00 0.000000e+00 0.000000e+00
1
Step 146000
Ar 1.037485e+00 0.000000e+00 0.000000e+00
1
Step 147000
Ar 1.045651e+00 0.000000e+00 0.000000e+00
1
Step 148000
Ar 1.037582e+00 0.000000e+00 0.000000e+00
1
Step 149000
Ar 1.037158e+00 0.000000e+00 0.000000e+00
1
Step 150000
Ar 1.036638e+00 0.000000e+00 0.000000e+00
1
Step 151000
Ar 1.041435e+00 0.000000e+00 0.000000e+00
1
Step 152000
Ar 1.013702e+00 0.000000e+00 0.000000e+00
1
Step 153000
Ar 1.015367e+00 0.000000e+00 0.000000e+00
1
Step 154000
Ar 9.588884e-01 0.000000e+00 0.000000e+00
1
Step 155000
Ar 9.619783e-01 0.000000e+00 0.000000e+00
1
Step 156000
Ar 8.457773e-01 0.000000e+00 0.000000e+00
1
Step 157000
Ar 1.008171e+00 0.000000e+00 0.000000e+00
1
Step 158000
Ar 1.046834e+00 0.000000e+00 0.000000e+00
1
Step 159000
Ar 1.050177e+00 0.000000e+00 0.000000e+00
1
Step 160000
Ar 1.048001e+00 0.000000e+00 0.000000e+00
1
Step 161000
Ar 1.051625e+00 0.000000e+00 0.000000e+00
1
Step 162000
Ar 1.047364e+00 0.000000e+00 0.000000e+00
1
Step 163000
Ar 1.049086e+00 0.000000e+00 0.000000e+00
1
Step 164000
Ar 1.054354e+00 0.000000e+00 0.000000e+00
1
Step 165000
Ar 1.046502e+00 0.000000e+00 0.000000e+00
1
Step 166000
Ar 1.046888e+00 0.000000e+00 0.000000e+00
1
Step 167000
Ar 1.050539e+00 0.000000e+00 0.000000e+00
1
Step 168000
Ar 1.062989e+00 0.000000e+00 0.000000e+00
1
Step 169000
Ar 1.054199e+00 0.000000e+00 0.000000e+00
1
Step 170000
Ar 1.049510e+00 0.000000e+00 0.000000e+00
1
Step 171000
Ar 9.576479e-01 0.000000e+00 0.000000e+00
1
Step 172000
Ar 9.606023e-01 0.000000e+00 0.000000e+00
1
Step 173000
Ar 9.644748e-01 0.000000e+00 0.000000e+00
1
Step 174000
Ar 9.585329e-01 0.000000e+00 0.000000e+00
1
Step 175000
Ar 9.244005e-01 0.000000e+00 0.000000e+00
1
Step 176000
Ar 9.315452e-01 0.000000e+00 0.000000e+00
1
Step 177000
Ar 9.214095e-01 0.000000e+00 0.000000e+00
1
Step 178000
Ar 9.193363e-01 0.000000e+00 0.000000e+00
1
Step 179000
Ar 9.204830e-01 0.000000e+00 0.000000e+00
1
Step 180000
Ar 9.178619e-01 0.000000e+00 0.000000e+00
1
Step 181000
Ar 9.227491e-01 0.000000e+00 0.000000e+00
1
Step 182000
Ar 9.244249e-01 0.000000e+00 0.000000e+00
1
Step 183000
Ar 9.148288e-01 0.000000e+00 0.000000e+00
1
Step 184000
Ar 9.137443e-01 0.000000e+00 0.000000e+00
1
Step 185000
Ar 9.165947e-01 0.000000e+00 0.000000e+00
1
Step 186000
Ar 9.611661e-01 0.000000e+00 0.000000e+00
1
Step 187000
Ar 1.014298e+00 0.000000e+00 0.000000e+00
1
Step 188000
Ar 1.032172e+00 0.000000e+00 0.000000e+00
1
Step 189000
Ar 9.956458e-01 0.000000e+00 0.000000e+00
1
Step 190000
Ar 1.008304e+00 0.000000e+00 0.000000e+00
1
Step 191000
Ar 1.052410e+00 0.000000e+00 0.000000e+00
1
Step 192000
Ar 1.054639e+00 0.000000e+00 0.000000e+00
1
Step 193000
Ar 1.056181e+00 0.000000e+00 0.000000e+00
1
Step 194000
Ar 1.068346e+00 0.000000e+00 0.000000e+00
1
Step 195000
Ar 1.069295e+00 0.000000e+00 0.000000e+00
1
Step 196000
Ar 1.071604e+00 0.000000e+00 0.000000e+00
1
Step 197000
Ar 1.074501e+00 0.000000e+00 0.000000e+00
1
Step 198000
Ar 9.078002e-01 0.000000e+00 0.000000e+00
1
Step 199000
Ar 9.055963e-01 0.000000e+00 0.000000e+00
1
Step 200000
Ar 9.005108e-01 0.000000e+00 0.000000e+00
1
Step 201000
Ar 9.350600e-01 0.000000e+00 0.000000e+00
1
Step 202000
Ar 1.009687e+00 0.000000e+00 0.000000e+00
1
Step 203000
Ar 1.080014e+00 0.000000e+00 0.000000e+00
1
Step 204000
Ar 1.012594e+00 0.000000e+00 0.000000e+00
1
Step 205000
Ar 1.014131e+00 0.000000e+00 0.000000e+00
1
Step 206000
Ar 1.016361e+00 0.000000e+00 0.000000e+00
1
Step 207000
Ar 1.047252e+00 0.000000e+00 0.000000e+00
1
Step 208000
Ar 8.952864e-01 0.000000e+00 0.000000e+00
1
Step 209000
Ar 8.977959e-01 0.000000e+00 0.000000e+00
1
Step 210000
Ar 8.992140e-01 0.000000e+00 0.000000e+00
1
Step 211000
Ar 8.994323e-01 0.000000e+00 0.000000e+00
1
Step 212000
Ar 8.992739e-01 0.000000e+00 0.000000e+00
1
Step 213000
Ar 8.959025e-01 0.000000e+00 0.000000e+00
1
Step 214000
Ar 1.019682e+00 0.000000e+00 0.000000e+00
1
Step 215000
Ar 1.070243e+00 0.000000e+00 0.000000e+00
1
Step 216000
Ar 1.020928e+00 0.000000e+00 0.000000e+00
1
Step 217000
Ar 9.775851e-01 0.000000e+00 0.000000e+00
1
Step 218000
Ar 1.048427e+00 0.000000e+00 0.000000e+00
1
Step 219000
Ar 8.699023e-01 0.000000e+00 0.000000e+00
1
Step 220000
Ar 1.017046e+00 0.000000e+00 0.000000e+00
1
Step 221000
Ar 8.238195e-01 0.000000e+00 0.000000e+00
1
Step 222000
Ar 1.125479e+00 0.000000e+00 0.000000e+00
1
Step 223000
Ar 9.792169e-01 0.000000e+00 0.000000e+00
1
Step 224000
Ar 1.012029e+00 0.000000e+00 0.000000e+00
1
Step 225000
Ar 1.012165e+00 0.000000e+00 0.000000e+00
1
Step 226000
Ar 9.982205e-01 0.000000e+00 0.000000e+00
1
Step 227000
Ar 1.025049e+00 0.000000e+00 0.000000e+00
1
Step 228000
Ar 1.089613e+00 0.000000e+00 0.000000e+00
1
Step 229000
Ar 1.089675e+00 0.000000e+00 0.000000e+00
1
Step 230000
Ar 1.014165e+00 0.000000e+00 0.000000e+00
1
Step 231000
Ar 9.527845e-01 0.000000e+00 0.000000e+00
1
Step 232000
Ar 8.559067e-01 0.000000e+00 0.000000e+00
1
Step 233000
Ar 9.586401e-01 0.000000e+00 0.000000e+00
1
Step 234000
Ar 1.015955e+00 0.000000e+00 0.000000e+00
1
Step 235000
Ar 1.012029e+00 0.000000e+00 0.000000e+00
1
Step 236000
Ar 1.012018e+00 0.000000e+00 0.000000e+00
1
Step 237000
Ar 1.057368e+00 0.000000e+00 0.000000e+00
1
Step 238000
Ar 9.483087e-01 0.000000e+00 0.000000e+00
1
Step 239000
Ar 1.070901e+00 0.000000e+00 0.000000e+00
1
Step 240000
Ar 9.800224e-01 0.000000e+00 0.000000e+00
1
Step 241000
Ar 9.738465e-01 0.000000e+00 0.000000e+00
1
Step 242000
Ar 9.762140e-01 0.000000e+00 0.000000e+00
1
Step 243000
Ar 1.011795e+00 0.000000e+00 0.000000e+00
1
Step 244000
Ar 1.002524e+00 0.000000e+00 0.000000e+00
1
Step 245000
Ar 1.030269e+00 0.000000e+00 0.000000e+00
1
Step 246000
Ar 1.115038e+00 0.000000e+00 0.000000e+00
1
Step 247000
Ar 1.011818e+00 0.000000e+00 0.000000e+00
1
Step 248000
Ar 8.393506e-01 0.000000e+00 0.000000e+00
1
Step 249000
Ar 9.817406e-01 0.000000e+00 0.000000e+00
1
Step 250000
Ar 9.359791e-01 0.000000e+00 0.000000e+00
1
Step 251000
Ar 9.562365e-01 0.000000e+00 0.000000e+00
1
Step 252000
Ar 7.784751e-01 0.000000e+00 0.000000e+00
1
Step 253000
Ar 9.645544e-01 0.000000e+00 0.000000e+00
1
Step 254000
Ar 1.014695e+00 0.000000e+00 0.000000e+00
1
Step 255000
Ar 1.016077e+00 0.000000e+00 0.000000e+00
1
Step 256000
Ar 1.014987e+00 0.000000e+00 0.000000e+00
1
Step 257000
Ar 9.991549e-01 0.000000e+00 0.000000e+00
1
Step 258000
Ar 1.033728e+00 0.000000e+00 0.000000e+00
1
Step 259000
Ar 1.011470e+00 0.000000e+00 0.000000e+00
1
Step 260000
Ar 9.663561e-01 0.000000e+00 0.000000e+00
1
Step 261000
Ar 1.035062e+00 0.000000e+00 0.000000e+00
1
Step 262000
Ar 1.089555e+00 0.000000e+00 0.000000e+00
1
Step 263000
Ar 1.094574e+00 0.000000e+00 0.000000e+00
1
Step 264000
Ar 1.094142e+00 0.000000e+00 0.000000e+00
1
Step 265000
Ar 1.091200e+00 0.000000e+00 0.000000e+00
1
Step 266000
Ar 1.096233e+00 0.000000e+00 0.000000e+00
1
Step 267000
Ar 1.092745e+00 0.000000e+00 0.000000e+00
1
Step 268000
Ar 1.099392e+00 0.000000e+00 0.000000e+00
1
Step 269000
Ar 1.100124e+00 0.000000e+00 0.000000e+00
1
Step 270000
Ar 1.096004e+00 0.000000e+00 0.000000e+00
1
Step 271000
Ar 1.097425e+00 0.000000e+00 0.000000e+00
1
Step 272000
Ar 1.147546e+00 0.000000e+00 0.000000e+00
1
Step 273000
Ar 1.052125e+00 0.000000e+00 0.000000e+00
1
Step 274000
Ar 1.069995e+00 0.000000e+00 0.000000e+00
1
Step 275000
Ar 1.058603e+00 0.000000e+00 0.000000e+00
1
Step 276000
Ar 1.010492e+00 0.000000e+00 0.000000e+00
1
Step 277000
Ar 1.008546e+00 0.000000e+00 0.000000e+00
1
Step 278000
Ar 9.991735e-01 0.000000e+00 0.000000e+00
1
Step 279000
Ar 1.035700e+00 0.000000e+00 0.000000e+00
1
Step 280000
Ar 1.018962e+00 0.000000e+00 0.000000e+00
1
Step 281000
Ar 9.832735e-01 0.000000e+00 0.000000e+00
1
Step 282000
Ar 9.793370e-01 0.000000e+00 0.000000e+00
1
Step 283000
Ar 9.871534e-01 0.000000e+00 0.000000e+00
1
Step 284000
Ar 9.615356e-01 0.000000e+00 0.000000e+00
1
Step 285000
Ar 9.570108e-01 0.000000e+00 0.000000e+00
1
Step 286000
Ar 9.890050e-01 0.000000e+00 0.000000e+00
1
Step 287000
Ar 9.982279e-01 0.000000e+00 0.000000e+00
1
Step 288000
Ar 8.603786e-01 0.000000e+00 0.000000e+00
1
Step 289000
Ar 8.530901e-01 0.000000e+00 0.000000e+00
1
Step 290000
Ar 8.481538e-01 0.000000e+00 0.000000e+00
1
Step 291000
Ar 9.600032e-01 0.000000e+00 0.000000e+00
1
Step 292000
Ar 9.451163e-01 0.000000e+00 0.000000e+00
1
Step 293000
Ar 9.530847e-01 0.000000e+00 0.000000e+00
1
Step 294000
Ar 1.054732e+00 0.000000e+00 0.000000e+00
1
Step 295000
Ar 9.070460e-01 0.000000e+00 0.000000e+00
1
Step 296000
Ar 8.848529e-01 0.000000e+00 0.000000e+00
1
Step 297000
Ar 8.199397e-01 0.000000e+00 0.000000e+00
1
Step 298000
Ar 1.031844e+00 0.000000e+00 0.000000e+00
1
Step 299000
Ar 9.561091e-01 0.000000e+00 0.000000e+00
1
Step 300000
Ar 9.192705e-01 0.000000e+00 0.000000e+00
1
Step 301000
Ar 1.147684e+00 0.000000e+00 0.000000e+00
1
Step 302000
Ar 9.437456e-01 0.000000e+00 0.000000e+00
1
Step 303000
Ar 8.463630e-01 0.000000e+00 0.000000e+00
1
Step 304000
Ar 9.910746e-01 0.000000e+00 0.000000e+00
1
Step 305000
Ar 1.217130e+00 0.000000e+00 0.000000e+00
1
Step 306000
Ar 8.830901e-01 0.000000e+00 0.000000e+00
1
Step 307000
Ar 8.819855e-01 0.000000e+00 0.000000e+00
1
Step 308000
Ar 8.832979e-01 0.000000e+00 0.000000e+00
1
Step 309000
Ar 9.951116e-01 0.000000e+00 0.000000e+00
1
Step 310000
Ar 1.067347e+00 0.000000e+00 0.000000e+00
1
Step 311000
Ar 9.422084e-01 0.000000e+00 0.000000e+00
1
Step 312000
Ar 8.701615e-01 0.000000e+00 0.000000e+00
1
Step 313000
Ar 8.837284e-01 0.000000e+00 0.000000e+00
1
Step 314000
Ar 8.820903e-01 0.000000e+00 0.000000e+00
1
Step 315000
Ar 8.714646e-01 0.000000e+00 0.000000e+00
1
Step 316000
Ar 8.477298e-01 0.000000e+00 0.000000e+00
1
Step 317000
Ar 9.071268e-01 0.000000e+00 0.000000e+00
1
Step 318000
Ar 1.053244e+00 0.000000e+00 0.000000e+00
1
Step 319000
Ar 9.062212e-01 0.000000e+00 0.000000e+00
1
Step 320000
Ar 8.901020e-01 0.000000e+00 0.000000e+00
1
Step 321000
Ar 9.653741e-01 0.000000e+00 0.000000e+00
1
Step 322000
Ar 9.971107e-01 0.000000e+00 0.000000e+00
1
Step 323000
Ar 9.790047e-01 0.000000e+00 0.000000e+00
1
Step 324000
Ar 9.384138e-01 0.000000e+00 0.000000e+00
1
Step 325000
Ar 9.379651e-01 0.000000e+00 0.000000e+00
1
Step 326000
Ar 1.014022e+00 0.000000e+00 0.000000e+00
1
Step 327000
Ar 9.597606e-01 0.000000e+00 0.000000e+00
1
Step 328000
Ar 9.506305e-01 0.000000e+00 0.000000e+00
1
Step 329000
Ar 9.374802e-01 0.000000e+00 0.000000e+00
1
Step 330000
Ar 9.384601e-01 0.000000e+00 0.000000e+00
1
Step 331000
Ar 8.868771e-01 0.000000e+00 0.000000e+00
1
Step 332000
Ar 9.400389e-01 0.000000e+00 0.000000e+00
1
Step 333000
Ar 9.381756e-01 0.000000e+00 0.000000e+00
1
Step 334000
Ar 9.359220e-01 0.000000e+00 0.000000e+00
1
Step 335000
Ar 9.410774e-01 0.000000e+00 0.000000e+00
1
Step 336000
Ar 9.407201e-01 0.000000e+00 0.000000e+00
1
Step 337000
Ar 9.394951e-01 0.000000e+00 0.000000e+00
1
Step 338000
Ar 9.379889e-01 0.000000e+00 0.000000e+00
1
Step 339000
Ar 9.358953e-01 0.000000e+00 0.000000e+00
1
Step 340000
Ar 9.581006e-01 0.000000e+00 0.000000e+00
1
Step 341000
Ar 9.753331e-01 0.000000e+00 0.000000e+00
1
Step 342000
Ar 1.113938e+00 0.000000e+00 0.000000e+00
1
Step 343000
Ar 8.785931e-01 0.000000e+00 0.000000e+00
1
Step 344000
Ar 9.383410e-01 0.000000e+00 0.000000e+00
1
Step 345000
Ar 9.366439e-01 0.000000e+00 0.000000e+00
1
Step 346000
Ar 9.394611e-01 0.000000e+00 0.000000e+00
1
Step 347000
Ar 8.910905e-01 0.000000e+00 0.000000e+00
1
Step 348000
Ar 8.283568e-01 0.000000e+00 0.000000e+00
1
Step 349000
Ar 9.797911e-01 0.000000e+00 0.000000e+00
1
Step 350000
Ar 1.032730e+00 0.000000e+00 0.000000e+00
1
Step 351000
Ar 9.761029e-01 0.000000e+00 0.000000e+00
1
Step 352000
Ar 1.006339e+00 0.000000e+00 0.000000e+00
1
Step 353000
Ar 9.371119e-01 0.000000e+00 0.000000e+00
1
Step 354000
Ar 9.372424e-01 0.000000e+00 0.000000e+00
1
Step 355000
Ar 1.098334e+00 0.000000e+00 0.000000e+00
1
Step 356000
Ar 9.278625e-01 0.000000e+00 0.000000e+00
1
Step 357000
Ar 9.728778e-01 0.000000e+00 0.000000e+00
1
Step 358000
Ar 1.006827e+00 0.000000e+00 0.000000e+00
1
Step 359000
Ar 1.101373e+00 0.000000e+00 0.000000e+00
1
Step 360000
Ar 9.283498e-01 0.000000e+00 0.000000e+00
1
Step 361000
Ar 8.285083e-01 0.000000e+00 0.000000e+00
1
Step 362000
Ar 8.496746e-01 0.000000e+00 0.000000e+00
1
Step 363000
Ar 1.089396e+00 0.000000e+00 0.000000e+00
1
Step 364000
Ar 9.421166e-01 0.000000e+00 0.000000e+00
1
Step 365000
Ar 7.647521e-01 0.000000e+00 0.000000e+00
1
Step 366000
Ar 1.046475e+00 0.000000e+00 0.000000e+00
1
Step 367000
Ar 8.880910e-01 0.000000e+00 0.000000e+00
1
Step 368000
Ar 1.068393e+00 0.000000e+00 0.000000e+00
1
Step 369000
Ar 1.013312e+00 0.000000e+00 0.000000e+00
1
Step 370000
Ar 1.012252e+00 0.000000e+00 0.000000e+00
1
Step 371000
Ar 9.778067e-01 0.000000e+00 0.000000e+00
1
Step 372000
Ar 8.487586e-01 0.000000e+00 0.000000e+00
1
Step 373000
Ar 1.061590e+00 0.000000e+00 0.000000e+00
1
Step 374000
Ar 9.558945e-01 0.000000e+00 0.000000e+00
1
Step 375000
Ar 9.775624e-01 0.000000e+00 0.000000e+00
1
Step 376000
Ar 9.394799e-01 0.000000e+00 0.000000e+00
1
Step 377000
Ar 8.790056e-01 0.000000e+00 0.000000e+00
1
Step 378000
Ar 1.016220e+00 0.000000e+00 0.000000e+00
1
Step 379000
Ar 1.014174e+00 0.000000e+00 0.000000e+00
1
Step 380000
Ar 9.391147e-01 0.000000e+00 0.000000e+00
1
Step 381000
Ar 1.087631e+00 0.000000e+00 0.000000e+00
1
Step 382000
Ar 8.862827e-01 0.000000e+00 0.000000e+00
1
Step 383000
Ar 1.014528e+00 0.000000e+00 0.000000e+00
1
Step 384000
Ar 9.871481e-01 0.000000e+00 0.000000e+00
1
Step 385000
Ar 9.109937e-01 0.000000e+00 0.000000e+00
1
Step 386000
Ar 1.013047e+00 0.000000e+00 0.000000e+00
1
Step 387000
Ar 1.067645e+00 0.000000e+00 0.000000e+00
1
Step 388000
Ar 9.186835e-01 0.000000e+00 0.000000e+00
1
Step 389000
Ar 1.095231e+00 0.000000e+00 0.000000e+00
1
Step 390000
Ar 9.911130e-01 0.000000e+00 0.000000e+00
1
Step 391000
Ar 9.590625e-01 0.000000e+00 0.000000e+00
1
Step 392000
Ar 8.837426e-01 0.000000e+00 0.000000e+00
1
Step 393000
Ar 9.835837e-01 0.000000e+00 0.000000e+00
1
Step 394000
Ar 1.034349e+00 0.000000e+00 0.000000e+00
1
Step 395000
Ar 7.757074e-01 0.000000e+00 0.000000e+00
1
Step 396000
Ar 1.028477e+00 0.000000e+00 0.000000e+00
1
Step 397000
Ar 1.013443e+00 0.000000e+00 0.000000e+00
1
Step 398000
Ar 1.029630e+00 0.000000e+00 0.000000e+00
1
Step 399000
Ar 9.388525e-01 0.000000e+00 0.000000e+00
1
Step 400000
Ar 9.846258e-01 0.000000e+00 0.000000e+00
1
Step 401000
Ar 9.764856e-01 0.000000e+00 0.000000e+00
1
Step 402000
Ar 9.583108e-01 0.000000e+00 0.000000e+00
1
Step 403000
Ar 1.074790e+00 0.000000e+00 0.000000e+00
1
Step 404000
Ar 8.893354e-01 0.000000e+00 0.000000e+00
1
Step 405000
Ar 9.048250e-01 0.000000e+00 0.000000e+00
1
Step 406000
Ar 1.077612e+00 0.000000e+00 0.000000e+00
1
Step 407000
Ar 9.000435e-01 0.000000e+00 0.000000e+00
1
Step 408000
Ar 8.993514e-01 0.000000e+00 0.000000e+00
1
Step 409000
Ar 8.995488e-01 0.000000e+00 0.000000e+00
1
Step 410000
Ar 8.969797e-01 0.000000e+00 0.000000e+00
1
Step 411000
Ar 8.842867e-01 0.000000e+00 0.000000e+00
1
Step 412000
Ar 1.037418e+00 0.000000e+00 0.000000e+00
1
Step 413000
Ar 1.127660e+00 0.000000e+00 0.000000e+00
1
Step 414000
Ar 1.063368e+00 0.000000e+00 0.000000e+00
1
Step 415000
Ar 8.400988e-01 0.000000e+00 0.000000e+00
1
Step 416000
Ar 9.758565e-01 0.000000e+00 0.000000e+00
1
Step 417000
Ar 1.151749e+00 0.000000e+00 0.000000e+00
1
Step 418000
Ar 1.017395e+00 0.000000e+00 0.000000e+00
1
Step 419000
Ar 8.986268e-01 0.000000e+00 0.000000e+00
1
Step 420000
Ar 8.940491e-01 0.000000e+00 0.000000e+00
1
Step 421000
Ar 8.989261e-01 0.000000e+00 0.000000e+00
1
Step 422000
Ar 8.955256e-01 0.000000e+00 0.000000e+00
1
Step 423000
Ar 9.282304e-01 0.000000e+00 0.000000e+00
1
Step 424000
Ar 8.478554e-01 0.000000e+00 0.000000e+00
1
Step 425000
Ar 8.966816e-01 0.000000e+00 0.000000e+00
1
Step 426000
Ar 1.105540e+00 0.000000e+00 0.000000e+00
1
Step 427000
Ar 8.759049e-01 0.000000e+00 0.000000e+00
1
Step 428000
Ar 8.478473e-01 0.000000e+00 0.000000e+00
1
Step 429000
Ar 8.459222e-01 0.000000e+00 0.000000e+00
1
Step 430000
Ar 8.445129e-01 0.000000e+00 0.000000e+00
1
Step 431000
Ar 1.011432e+00 0.000000e+00 0.000000e+00
1
Step 432000
Ar 9.254302e-01 0.000000e+00 0.000000e+00
1
Step 433000
Ar 1.097446e+00 0.000000e+00 0.000000e+00
1
Step 434000
Ar 1.205916e+00 0.000000e+00 0.000000e+00
1
Step 435000
Ar 1.126640e+00 0.000000e+00 0.000000e+00
1
Step 436000
Ar 1.165347e+00 0.000000e+00 0.000000e+00
1
Step 437000
Ar 1.096888e+00 0.000000e+00 0.000000e+00
1
Step 438000
Ar 1.099010e+00 0.000000e+00 0.000000e+00
1
Step 439000
Ar 1.125805e+00 0.000000e+00 0.000000e+00
1
Step 440000
Ar 9.475539e-01 0.000000e+00 0.000000e+00
1
Step 441000
Ar 8.657018e-01 0.000000e+00 0.000000e+00
1
Step 442000
Ar 1.060269e+00 0.000000e+00 0.000000e+00
1
Step 443000
Ar 1.160303e+00 0.000000e+00 0.000000e+00
1
Step 444000
Ar 9.308764e-01 0.000000e+00 0.000000e+00
1
Step 445000
Ar 9.321979e-01 0.000000e+00 0.000000e+00
1
Step 446000
Ar 8.774302e-01 0.000000e+00 0.000000e+00
1
Step 447000
Ar 9.801240e-01 0.000000e+00 0.000000e+00
1
Step 448000
Ar 1.110988e+00 0.000000e+00 0.000000e+00
1
Step 449000
Ar 1.117315e+00 0.000000e+00 0.000000e+00
1
Step 450000
Ar 1.111443e+00 0.000000e+00 0.000000e+00
1
Step 451000
Ar 1.111953e+00 0.000000e+00 0.000000e+00
1
Step 452000
Ar 1.120230e+00 0.000000e+00 0.000000e+00
1
Step 453000
Ar 9.632303e-01 0.000000e+00 0.000000e+00
1
Step 454000
Ar 8.520089e-01 0.000000e+00 0.000000e+00
1
Step 455000
Ar 1.086468e+00 0.000000e+00 0.000000e+00
1
Step 456000
Ar 9.517878e-01 0.000000e+00 0.000000e+00
1
Step 457000
Ar 8.467800e-01 0.000000e+00 0.000000e+00
1
Step 458000
Ar 1.087898e+00 0.000000e+00 0.000000e+00
1
Step 459000
Ar 8.289685e-01 0.000000e+00 0.000000e+00
1
Step 460000
Ar 1.041978e+00 0.000000e+00 0.000000e+00
1
Step 461000
Ar 8.246943e-01 0.000000e+00 0.000000e+00
1
Step 462000
Ar 8.442382e-01 0.000000e+00 0.000000e+00
1
Step 463000
Ar 1.032095e+00 0.000000e+00 0.000000e+00
1
Step 464000
Ar 9.785097e-01 0.000000e+00 0.000000e+00
1
Step 465000
Ar 1.035479e+00 0.000000e+00 0.000000e+00
1
Step 466000
Ar 1.113943e+00 0.000000e+00 0.000000e+00
1
Step 467000
Ar 1.107826e+00 0.000000e+00 0.000000e+00
1
Step 468000
Ar 1.115517e+00 0.000000e+00 0.000000e+00
1
Step 469000
Ar 1.081601e+00 0.000000e+00 0.000000e+00
1
Step 470000
Ar 9.812890e-01 0.000000e+00 0.000000e+00
1
Step 471000
Ar 9.628067e-01 0.000000e+00 0.000000e+00
1
Step 472000
Ar 9.660342e-01 0.000000e+00 0.000000e+00
1
Step 473000
Ar 9.976772e-01 0.000000e+00 0.000000e+00
1
Step 474000
Ar 1.106356e+00 0.000000e+00 0.000000e+00
1
Step 475000
Ar 8.454604e-01 0.000000e+00 0.000000e+00
1
Step 476000
Ar 1.113124e+00 0.000000e+00 0.000000e+00
1
Step 477000
Ar 1.109363e+00 0.000000e+00 0.000000e+00
1
Step 478000
Ar 8.119133e-01 0.000000e+00 0.000000e+00
1
Step 479000
Ar 1.132758e+00 0.000000e+00 0.000000e+00
1
Step 480000
Ar 9.621572e-01 0.000000e+00 0.000000e+00
1
Step 481000
Ar 1.012711e+00 0.000000e+00 0.000000e+00
1
Step 482000
Ar 1.031134e+00 0.000000e+00 0.000000e+00
1
Step 483000
Ar 7.641548e-01 0.000000e+00 0.000000e+00
1
Step 484000
Ar 8.469404e-01 0.000000e+00 0.000000e+00
1
Step 485000
Ar 8.540195e-01 0.000000e+00 0.000000e+00
1
Step 486000
Ar 8.691952e-01 0.000000e+00 0.000000e+00
1
Step 487000
Ar 1.107814e+00 0.000000e+00 0.000000e+00
1
Step 488000
Ar 1.111758e+00 0.000000e+00 0.000000e+00
1
Step 489000
Ar 1.107916e+00 0.000000e+00 0.000000e+00
1
Step 490000
Ar 1.116524e+00 0.000000e+00 0.000000e+00
1
Step 491000
Ar 8.538419e-01 0.000000e+00 0.000000e+00
1
Step 492000
Ar 8.462553e-01 0.000000e+00 0.000000e+00
1
Step 493000
Ar 8.500436e-01 0.000000e+00 0.000000e+00
1
Step 494000
Ar 8.467130e-01 0.000000e+00 0.000000e+00
1
Step 495000
Ar 8.493505e-01 0.000000e+00 0.000000e+00
1
Step 496000
Ar 8.474071e-01 0.000000e+00 0.000000e+00
1
Step 497000
Ar 8.449884e-01 0.000000e+00 0.000000e+00
1
Step 498000
Ar 8.477295e-01 0.000000e+00 0.000000e+00
1
Step 499000
Ar 8.432400e-01 0.000000e+00 0.000000e+00
1
Step 500000
Ar 8.432812e-01 0.000000e+00 0.000000e+00
1
Step 501000
Ar 8.556249e-01 0.000000e+00 0.000000e+00
1
Step 502000
Ar 8.254264e-01 0.000000e+00 0.000000e+00
1
Step 503000
Ar 1.038828e+00 0.000000e+00 0.000000e+00
1
Step 504000
Ar 1.077687e+00 0.000000e+00 0.000000e+00
1
Step 505000
Ar 1.121050e+00 0.000000e+00 0.000000e+00
1
Step 506000
Ar 8.420463e-01 0.000000e+00 0.000000e+00
1
Step 507000
Ar 8.548517e-01 0.000000e+00 0.000000e+00
1
Step 508000
Ar 8.457605e-01 0.000000e+00 0.000000e+00
1
Step 509000
Ar 8.450242e-01 0.000000e+00 0.000000e+00
1
Step 510000
Ar 8.447633e-01 0.000000e+00 0.000000e+00
1
Step 511000
Ar 8.529404e-01 0.000000e+00 0.000000e+00
1
Step 512000
Ar 8.501865e-01 0.000000e+00 0.000000e+00
1
Step 513000
Ar 8.526425e-01 0.000000e+00 0.000000e+00
1
Step 514000
Ar 1.060894e+00 0.000000e+00 0.000000e+00
1
Step 515000
Ar 1.112675e+00 0.000000e+00 0.000000e+00
1
Step 516000
Ar 1.090495e+00 0.000000e+00 0.000000e+00
1
Step 517000
Ar 1.075617e+00 0.000000e+00 0.000000e+00
1
Step 518000
Ar 1.034308e+00 0.000000e+00 0.000000e+00
1
Step 519000
Ar 9.353046e-01 0.000000e+00 0.000000e+00
1
Step 520000
Ar 1.149453e+00 0.000000e+00 0.000000e+00
1
Step 521000
Ar 1.077290e+00 0.000000e+00 0.000000e+00
1
Step 522000
Ar 8.930099e-01 0.000000e+00 0.000000e+00
1
Step 523000
Ar 9.520849e-01 0.000000e+00 0.000000e+00
1
Step 524000
Ar 8.366207e-01 0.000000e+00 0.000000e+00
1
Step 525000
Ar 8.143124e-01 0.000000e+00 0.000000e+00
1
Step 526000
Ar 1.082293e+00 0.000000e+00 0.000000e+00
1
Step 527000
Ar 1.144158e+00 0.000000e+00 0.000000e+00
1
Step 528000
Ar 9.389845e-01 0.000000e+00 0.000000e+00
1
Step 529000
Ar 7.958761e-01 0.000000e+00 0.000000e+00
1
Step 530000
Ar 8.140264e-01 0.000000e+00 0.000000e+00
1
Step 531000
Ar 7.617683e-01 0.000000e+00 0.000000e+00
1
Step 532000
Ar 1.136768e+00 0.000000e+00 0.000000e+00
1
Step 533000
Ar 1.048808e+00 0.000000e+00 0.000000e+00
1
Step 534000
Ar 9.010391e-01 0.000000e+00 0.000000e+00
1
Step 535000
Ar 9.718612e-01 0.000000e+00 0.000000e+00
1
Step 536000
Ar 9.252768e-01 0.000000e+00 0.000000e+00
1
Step 537000
Ar 9.590414e-01 0.000000e+00 0.000000e+00
1
Step 538000
Ar 9.447967e-01 0.000000e+00 0.000000e+00
1
Step 539000
Ar 1.056939e+00 0.000000e+00 0.000000e+00
1
Step 540000
Ar 7.955240e-01 0.000000e+00 0.000000e+00
1
Step 541000
Ar 1.034071e+00 0.000000e+00 0.000000e+00
1
Step 542000
Ar 1.061995e+00 0.000000e+00 0.000000e+00
1
Step 543000
Ar 9.680814e-01 0.000000e+00 0.000000e+00
1
Step 544000
Ar 9.340196e-01 0.000000e+00 0.000000e+00
1
Step 545000
Ar 6.813301e-01 0.000000e+00 0.000000e+00
1
Step 546000
Ar 1.061709e+00 0.000000e+00 0.000000e+00
1
Step 547000
Ar 9.101932e-01 0.000000e+00 0.000000e+00
1
Step 548000
Ar 9.350448e-01 0.000000e+00 0.000000e+00
1
Step 549000
Ar 1.105855e+00 0.000000e+00 0.000000e+00
1
Step 550000
Ar 1.000174e+00 0.000000e+00 0.000000e+00
1
Step 551000
Ar 9.147455e-01 0.000000e+00 0.000000e+00
1
Step 552000
Ar 9.243015e-01 0.000000e+00 0.000000e+00
1
Step 553000
Ar 1.010508e+00 0.000000e+00 0.000000e+00
1
Step 554000
Ar 8.759094e-01 0.000000e+00 0.000000e+00
1
Step 555000
Ar 8.121739e-01 0.000000e+00 0.000000e+00
1
Step 556000
Ar 7.021385e-01 0.000000e+00 0.000000e+00
1
Step 557000
Ar 9.640822e-01 0.000000e+00 0.000000e+00
1
Step 558000
Ar 7.835224e-01 0.000000e+00 0.000000e+00
1
Step 559000
Ar 1.095789e+00 0.000000e+00 0.000000e+00
1
Step 560000
Ar 8.317286e-01 0.000000e+00 0.000000e+00
1
Step 561000
Ar 1.100149e+00 0.000000e+00 0.000000e+00
1
Step 562000
Ar 1.108198e+00 0.000000e+00 0.000000e+00
1
Step 563000
Ar 8.324630e-01 0.000000e+00 0.000000e+00
1
Step 564000
Ar 1.094536e+00 0.000000e+00 0.000000e+00
1
Step 565000
Ar 7.923146e-01 0.000000e+00 0.000000e+00
1
Step 566000
Ar 9.664752e-01 0.000000e+00 0.000000e+00
1
Step 567000
Ar 1.039646e+00 0.000000e+00 0.000000e+00
1
Step 568000
Ar 1.125495e+00 0.000000e+00 0.000000e+00
1
Step 569000
Ar 1.090143e+00 0.000000e+00 0.000000e+00
1
Step 570000
Ar 1.107759e+00 0.000000e+00 0.000000e+00
1
Step 571000
Ar 1.106740e+00 0.000000e+00 0.000000e+00
1
Step 572000
Ar 1.106894e+00 0.000000e+00 0.000000e+00
1
Step 573000
Ar 1.115547e+00 0.000000e+00 0.000000e+00
1
Step 574000
Ar 1.106571e+00 0.000000e+00 0.000000e+00
1
Step 575000
Ar 1.106887e+00 0.000000e+00 0.000000e+00
1
Step 576000
Ar 1.217875e+00 0.000000e+00 0.000000e+00
1
Step 577000
Ar 8.921292e-01 0.000000e+00 0.000000e+00
1
Step 578000
Ar 9.581402e-01 0.000000e+00 0.000000e+00
1
Step 579000
Ar 9.384708e-01 0.000000e+00 0.000000e+00
1
Step 580000
Ar 9.046173e-01 0.000000e+00 0.000000e+00
1
Step 581000
Ar 9.064702e-01 0.000000e+00 0.000000e+00
1
Step 582000
Ar 9.399613e-01 0.000000e+00 0.000000e+00
1
Step 583000
Ar 9.621937e-01 0.000000e+00 0.000000e+00
1
Step 584000
Ar 1.117166e+00 0.000000e+00 0.000000e+00
1
Step 585000
Ar 1.146801e+00 0.000000e+00 0.000000e+00
1
Step 586000
Ar 8.888507e-01 0.000000e+00 0.000000e+00
1
Step 587000
Ar 8.363172e-01 0.000000e+00 0.000000e+00
1
Step 588000
Ar 8.479902e-01 0.000000e+00 0.000000e+00
1
Step 589000
Ar 8.219543e-01 0.000000e+00 0.000000e+00
1
Step 590000
Ar 1.008407e+00 0.000000e+00 0.000000e+00
1
Step 591000
Ar 7.039530e-01 0.000000e+00 0.000000e+00
1
Step 592000
Ar 9.110234e-01 0.000000e+00 0.000000e+00
1
Step 593000
Ar 8.710238e-01 0.000000e+00 0.000000e+00
1
Step 594000
Ar 8.709728e-01 0.000000e+00 0.000000e+00
1
Step 595000
Ar 8.573534e-01 0.000000e+00 0.000000e+00
1
Step 596000
Ar 7.240077e-01 0.000000e+00 0.000000e+00
1
Step 597000
Ar 9.035792e-01 0.000000e+00 0.000000e+00
1
Step 598000
Ar 7.507066e-01 0.000000e+00 0.000000e+00
1
Step 599000
Ar 1.091215e+00 0.000000e+00 0.000000e+00
1
Step 600000
Ar 1.122270e+00 0.000000e+00 0.000000e+00
1
Step 601000
Ar 9.812213e-01 0.000000e+00 0.000000e+00
1
Step 602000
Ar 6.835444e-01 0.000000e+00 0.000000e+00
1
Step 603000
Ar 9.941044e-01 0.000000e+00 0.000000e+00
1
Step 604000
Ar 9.564980e-01 0.000000e+00 0.000000e+00
1
Step 605000
Ar 1.073906e+00 0.000000e+00 0.000000e+00
1
Step 606000
Ar 5.769017e-01 0.000000e+00 0.000000e+00
1
Step 607000
Ar 2.861066e-01 0.000000e+00 0.000000e+00
1
Step 608000
Ar 1.167847e+00 0.000000e+00 0.000000e+00
1
Step 609000
Ar 9.025712e-01 0.000000e+00 0.000000e+00
1
Step 610000
Ar 9.193149e-01 0.000000e+00 0.000000e+00
1
Step 611000
Ar 8.395740e-01 0.000000e+00 0.000000e+00
1
Step 612000
Ar 8.135225e-01 0.000000e+00 0.000000e+00
1
Step 613000
Ar 8.090971e-01 0.000000e+00 0.000000e+00
1
Step 614000
Ar 1.003212e+00 0.000000e+00 0.000000e+00
1
Step 615000
Ar 1.061937e+00 0.000000e+00 0.000000e+00
1
Step 616000
Ar 9.158083e-01 0.000000e+00 0.000000e+00
1
Step 617000
Ar 8.012769e-01 0.000000e+00 0.000000e+00
1
Step 618000
Ar 8.590346e-01 0.000000e+00 0.000000e+00
1
Step 619000
Ar 7.779571e-01 0.000000e+00 0.000000e+00
1
Step 620000
Ar 7.513173e-01 0.000000e+00 0.000000e+00
1
Step 621000
Ar 8.560931e-01 0.000000e+00 0.000000e+00
1
Step 622000
Ar 1.012571e+00 0.000000e+00 0.000000e+00
1
Step 623000
Ar 8.351359e-01 0.000000e+00 0.000000e+00
1
Step 624000
Ar 8.401242e-01 0.000000e+00 0.000000e+00
1
Step 625000
Ar 9.494426e-01 0.000000e+00 0.000000e+00
1
Step 626000
Ar 8.374110e-01 0.000000e+00 0.000000e+00
1
Step 627000
Ar 9.962717e-01 0.000000e+00 0.000000e+00
1
Step 628000
Ar 1.125955e+00 0.000000e+00 0.000000e+00
1
Step 629000
Ar 1.232065e+00 0.000000e+00 0.000000e+00
1
Step 630000
Ar 6.152180e-01 0.000000e+00 0.000000e+00
1
Step 631000
Ar 9.015732e-01 0.000000e+00 0.000000e+00
1
Step 632000
Ar 1.023444e+00 0.000000e+00 0.000000e+00
1
Step 633000
Ar 1.048630e+00 0.000000e+00 0.000000e+00
1
Step 634000
Ar 9.345902e-01 0.000000e+00 0.000000e+00
1
Step 635000
Ar 1.251467e+00 0.000000e+00 0.000000e+00
1
Step 636000
Ar 1.131469e+00 0.000000e+00 0.000000e+00
1
Step 637000
Ar 1.151808e+00 0.000000e+00 0.000000e+00
1
Step 638000
Ar 9.169135e-01 0.000000e+00 0.000000e+00
1
Step 639000
Ar 5.162892e-01 0.000000e+00 0.000000e+00
1
Step 640000
Ar 9.353424e-01 0.000000e+00 0.000000e+00
1
Step 641000
Ar 8.854119e-01 0.000000e+00 0.000000e+00
1
Step 642000
Ar 1.032542e+00 0.000000e+00 0.000000e+00
1
Step 643000
Ar -1.006459e+00 0.000000e+00 0.000000e+00
1
Step 644000
Ar -9.977233e-01 0.000000e+00 0.000000e+00
1
Step 645000
Ar -9.794319e-01 0.000000e+00 0.000000e+00
1
Step 646000
Ar -9.883741e-01 0.000000e+00 0.000000e+00
1
Step 647000
Ar -9.867491e-01 0.000000e+00 0.000000e+00
1
Step 648000
Ar -9.896156e-01 0.000000e+00 0.000000e+00
1
Step 649000
Ar -9.657166e-01 0.000000e+00 0.000000e+00
1
Step 650000
Ar -9.860121e-01 0.000000e+00 0.000000e+00
1
Step 651000
Ar -9.906160e-01 0.000000e+00 0.000000e+00
1
Step 652000
Ar -9.815589e-01 0.000000e+00 0.000000e+00
1
Step 653000
Ar -9.908957e-01 0.000000e+00 0.000000e+00
1
Step 654000
Ar -9.719424e-01 0.000000e+00 0.000000e+00
1
Step 655000