1
Step 120000
Ar 1.281065e+00 0.000000e+00 0.000000e+00
1
Step 121000
Ar 7.948398e-01 0.000000e+00 0.000000e+00
1
Step 122000
Ar 8.254188e-01 0.000000e+00 0.000000e+00
1
Step 123000
Ar 1.017753e+00 0.000000e+00 0.000000e+00
1
Step 124000
Ar 8.945540e-01 0.000000e+00 0.000000e+00
1
Step 125000
Ar 1.058444e+00 0.000000e+00 0.000000e+00
1
Step 126000
Ar 1.110792e+00 0.000000e+00 0.000000e+00
1
Step 127000
Ar 1.120038e+00 0.000000e+00 0.000000e+00
1
Step 128000
Ar 1.144602e+00 0.000000e+00 0.000000e+00
1
Step 129000
Ar 1.155136e+00 0.000000e+00 0.000000e+00
1
Step 130000
Ar 1.094119e+00 0.000000e+00 0.000000e+00
1
Step 131000
Ar 1.120221e+00 0.000000e+00 0.000000e+00
1
Step 132000
Ar 1.080875e+00 0.000000e+00 0.000000e+00
1
Step 133000
Ar 1.111574e+00 0.000000e+00 0.000000e+00
1
Step 134000
Ar 1.094897e+00 0.000000e+00 0.000000e+00
1
Step 135000
Ar 1.126061e+00 0.000000e+00 0.000000e+00
1
Step 136000
Ar 1.109206e+00 0.000000e+00 0.000000e+00
1
Step 137000
Ar 8.095904e-01 0.000000e+00 0.000000e+00
1
Step 138000
Ar 9.470939e-01 0.000000e+00 0.000000e+00
1
Step 139000
Ar 9.575802e-01 0.000000e+00 0.000000e+00
1
Step 140000
Ar 9.283483e-01 0.000000e+00 0.000000e+00
1
Step 141000
Ar 1.024247e+00 0.000000e+00 0.000000e+00
1
Step 142000
Ar 9.428427e-01 0.000000e+00 0.000000e+00
1
Step 143000
Ar 1.036572e+00 0.000000e+00 0.000000e+00
1
Step 144000
Ar 1.007816e+00 0.000000e+00 0.000000e+00
1
Step 145000
Ar 1.007107e+00 0.000000e+00 0.000000e+00
1
Step 146000
Ar 1.030574e+00 0.000000e+00 0.000000e+00
1
Step 147000
Ar 1.013403e+00 0.000000e+00 0.000000e+00
1
Step 148000
Ar 1.019871e+00 0.000000e+00 0.000000e+00
1
Step 149000
Ar 1.010422e+00 0.000000e+00 0.000000e+00
1
Step 150000
Ar 1.011977e+00 0.000000e+00 0.000000e+00
1
Step 151000
Ar 1.012861e+00 0.000000e+00 0.000000e+00
1
Step 152000
Ar 1.099440e+00 0.000000e+00 0.000000e+00
1
Step 153000
Ar 1.097399e+00 0.000000e+00 0.000000e+00
1
Step 154000
Ar 1.209791e+00 0.000000e+00 0.000000e+00
1
Step 155000
Ar 1.193908e+00 0.000000e+00 0.000000e+00
1
Step 156000
Ar 1.190264e+00 0.000000e+00 0.000000e+00
1
Step 157000
Ar 8.675654e-01 0.000000e+00 0.000000e+00
1
Step 158000
Ar 8.355128e-01 0.000000e+00 0.000000e+00
1
Step 159000
Ar 8.073653e-01 0.000000e+00 0.000000e+00
1
Step 160000
Ar 7.886341e-01 0.000000e+00 0.000000e+00
1
Step 161000
Ar 7.984733e-01 0.000000e+00 0.000000e+00
1
Step 162000
Ar 8.479233e-01 0.000000e+00 0.000000e+00
1
Step 163000
Ar 8.912913e-01 0.000000e+00 0.000000e+00
1
Step 164000
Ar 8.851365e-01 0.000000e+00 0.000000e+00
1
Step 165000
Ar 8.691421e-01 0.000000e+00 0.000000e+00
1
Step 166000
Ar 8.766710e-01 0.000000e+00 0.000000e+00
1
Step 167000
Ar 8.371637e-01 0.000000e+00 0.000000e+00
1
Step 168000
Ar 5.236342e-01 0.000000e+00 0.000000e+00
1
Step 169000
Ar 7.616828e-01 0.000000e+00 0.000000e+00
1
Step 170000
Ar 5.650904e-01 0.000000e+00 0.000000e+00
1
Step 171000
Ar 5.581748e-01 0.000000e+00 0.000000e+00
1
Step 172000
Ar 6.216455e-01 0.000000e+00 0.000000e+00
1
Step 173000
Ar 6.026417e-01 0.000000e+00 0.000000e+00
1
Step 174000
Ar 6.046898e-01 0.000000e+00 0.000000e+00
1
Step 175000
Ar 5.209163e-01 0.000000e+00 0.000000e+00
1
Step 176000
Ar 2.777280e-01 0.000000e+00 0.000000e+00
1
Step 177000
Ar 4.960594e-01 0.000000e+00 0.000000e+00
1
Step 178000
Ar 5.255947e-01 0.000000e+00 0.000000e+00
1
Step 179000
Ar 5.093729e-01 0.000000e+00 0.000000e+00
1
Step 180000
Ar 5.700151e-01 0.000000e+00 0.000000e+00
1
Step 181000
Ar 3.888689e-01 0.000000e+00 0.000000e+00
1
Step 182000
Ar 5.282049e-01 0.000000e+00 0.000000e+00
1
Step 183000
Ar 5.361936e-01 0.000000e+00 0.000000e+00
1
Step 184000
Ar 4.138848e-01 0.000000e+00 0.000000e+00
1
Step 185000
Ar 4.087520e-01 0.000000e+00 0.000000e+00
1
Step 186000
Ar 3.501235e-01 0.000000e+00 0.000000e+00
1
Step 187000
Ar -5.385351e-03 0.000000e+00 0.000000e+00
1
Step 188000
Ar -1.025372e+00 0.000000e+00 0.000000e+00
1
Step 189000
Ar -1.036245e+00 0.000000e+00 0.000000e+00
1
Step 190000
Ar -9.053222e-01 0.000000e+00 0.000000e+00
1
Step 191000
Ar -8.758663e-01 0.000000e+00 0.000000e+00
1
Step 192000
Ar -8.743215e-01 0.000000e+00 0.000000e+00
1
Step 193000
Ar -8.613452e-01 0.000000e+00 0.000000e+00
1
Step 194000
Ar -8.557857e-01 0.000000e+00 0.000000e+00
1
Step 195000
Ar -8.565854e-01 0.000000e+00 0.000000e+00
1
Step 196000
Ar -8.584385e-01 0.000000e+00 0.000000e+00
1
Step 197000
Ar -8.593466e-01 0.000000e+00 0.000000e+00
1
Step 198000
Ar -8.535549e-01 0.000000e+00 0.000000e+00
1
Step 199000
Ar -8.565454e-01 0.000000e+00 0.000000e+00
1
Step 200000
Ar -7.163394e-01 0.000000e+00 0.000000e+00
1
Step 201000
Ar -6.690476e-01 0.000000e+00 0.000000e+00
1
Step 202000
Ar -7.886203e-01 0.000000e+00 0.000000e+00
1
Step 203000
Ar -8.103598e-01 0.000000e+00 0.000000e+00
1
Step 204000
Ar -5.949123e-01 0.000000e+00 0.000000e+00
1
Step 205000
Ar -5.787995e-01 0.000000e+00 0.000000e+00
1
Step 206000
Ar -5.395132e-01 0.000000e+00 0.000000e+00
1
Step 207000
Ar -5.883746e-01 0.000000e+00 0.000000e+00
1
Step 208000
Ar -5.490072e-01 0.000000e+00 0.000000e+00
1
Step 209000
Ar -5.618915e-01 0.000000e+00 0.000000e+00
1
Step 210000
Ar -5.979164e-01 0.000000e+00 0.000000e+00
1
Step 211000
Ar -5.836701e-01 0.000000e+00 0.000000e+00
1
Step 212000
Ar -5.626897e-01 0.000000e+00 0.000000e+00
1
Step 213000
Ar -6.040391e-01 0.000000e+00 0.000000e+00
1
Step 214000
Ar -5.717360e-01 0.000000e+00 0.000000e+00
1
Step 215000
Ar 1.514878e-01 0.000000e+00 0.000000e+00
1
Step 216000
Ar -5.759141e-01 0.000000e+00 0.000000e+00
1
Step 217000
Ar -5.828222e-01 0.000000e+00 0.000000e+00
1
Step 218000
Ar -5.803910e-01 0.000000e+00 0.000000e+00
1
Step 219000
Ar -5.768373e-01 0.000000e+00 0.000000e+00
1
Step 220000
Ar -6.025031e-01 0.000000e+00 0.000000e+00
1
Step 221000
Ar -6.024110e-01 0.000000e+00 0.000000e+00
1
Step 222000
Ar -5.979410e-01 0.000000e+00 0.000000e+00
1
Step 223000
Ar -6.031346e-01 0.000000e+00 0.000000e+00
1
Step 224000
Ar -6.074689e-01 0.000000e+00 0.000000e+00
1
Step 225000
Ar -6.040112e-01 0.000000e+00 0.000000e+00
1
Step 226000
Ar -8.060689e-01 0.000000e+00 0.000000e+00
1
Step 227000
Ar -7.609965e-01 0.000000e+00 0.000000e+00
1
Step 228000
Ar -7.985895e-01 0.000000e+00 0.000000e+00
1
Step 229000
Ar -8.202647e-01 0.000000e+00 0.000000e+00
1
Step 230000
Ar -7.856161e-01 0.000000e+00 0.000000e+00
1
Step 231000
Ar -8.053751e-01 0.000000e+00 0.000000e+00
1
Step 232000
Ar -8.155999e-01 0.000000e+00 0.000000e+00
1
Step 233000
Ar -7.986446e-01 0.000000e+00 0.000000e+00
1
Step 234000
Ar -8.268739e-01 0.000000e+00 0.000000e+00
1
Step 235000
Ar -8.286168e-01 0.000000e+00 0.000000e+00
1
Step 236000
Ar -7.940246e-01 0.000000e+00 0.000000e+00
1
Step 237000
Ar -7.983976e-01 0.000000e+00 0.000000e+00
1
Step 238000
Ar -7.332295e-01 0.000000e+00 0.000000e+00
1
Step 239000
Ar -7.586324e-01 0.000000e+00 0.000000e+00
1
Step 240000
Ar -8.216241e-01 0.000000e+00 0.000000e+00
1
Step 241000
Ar -8.037651e-01 0.000000e+00 0.000000e+00
1
Step 242000
Ar -7.795895e-01 0.000000e+00 0.000000e+00
1
Step 243000
Ar -8.132144e-01 0.000000e+00 0.000000e+00
1
Step 244000
Ar -8.197772e-01 0.000000e+00 0.000000e+00
1
Step 245000
Ar -7.816727e-01 0.000000e+00 0.000000e+00
1
Step 246000
Ar -7.424763e-01 0.000000e+00 0.000000e+00
1
Step 247000
Ar -7.306217e-01 0.000000e+00 0.000000e+00
1
Step 248000
Ar -7.321070e-01 0.000000e+00 0.000000e+00
1
Step 249000
Ar -7.281460e-01 0.000000e+00 0.000000e+00
1
Step 250000
Ar -7.442152e-01 0.000000e+00 0.000000e+00
1
Step 251000
Ar -7.145948e-01 0.000000e+00 0.000000e+00
1
Step 252000
Ar -7.411265e-01 0.000000e+00 0.000000e+00
1
Step 253000
Ar -7.386522e-01 0.000000e+00 0.000000e+00
1
Step 254000
Ar -7.422606e-01 0.000000e+00 0.000000e+00
1
Step 255000
Ar -7.518651e-01 0.000000e+00 0.000000e+00
1
Step 256000
Ar -7.469653e-01 0.000000e+00 0.000000e+00
1
Step 257000
Ar -7.422168e-01 0.000000e+00 0.000000e+00
1
Step 258000
Ar -7.352856e-01 0.000000e+00 0.000000e+00
1
Step 259000
Ar -6.966581e-01 0.000000e+00 0.000000e+00
1
Step 260000
Ar -6.591146e-01 0.000000e+00 0.000000e+00
1
Step 261000
Ar -6.809848e-01 0.000000e+00 0.000000e+00
1
Step 262000
Ar -6.826008e-01 0.000000e+00 0.000000e+00
1
Step 263000
Ar -6.850352e-01 0.000000e+00 0.000000e+00
1
Step 264000
Ar -7.372974e-01 0.000000e+00 0.000000e+00
1
Step 265000
Ar -8.182766e-01 0.000000e+00 0.000000e+00
1
Step 266000
Ar -8.131905e-01 0.000000e+00 0.000000e+00
1
Step 267000
Ar -8.298406e-01 0.000000e+00 0.000000e+00
1
Step 268000
Ar -8.210840e-01 0.000000e+00 0.000000e+00
1
Step 269000
Ar -8.284802e-01 0.000000e+00 0.000000e+00
1
Step 270000
Ar -8.318935e-01 0.000000e+00 0.000000e+00
1
Step 271000
Ar -8.136457e-01 0.000000e+00 0.000000e+00
1
Step 272000
Ar -8.214558e-01 0.000000e+00 0.000000e+00
1
Step 273000
Ar -8.159958e-01 0.000000e+00 0.000000e+00
1
Step 274000
Ar -8.078639e-01 0.000000e+00 0.000000e+00
1
Step 275000
Ar -8.296606e-01 0.000000e+00 0.000000e+00
1
Step 276000
Ar -8.037281e-01 0.000000e+00 0.000000e+00
1
Step 277000
Ar -8.217125e-01 0.000000e+00 0.000000e+00
1
Step 278000
Ar -8.189965e-01 0.000000e+00 0.000000e+00
1
Step 279000
Ar -8.231927e-01 0.000000e+00 0.000000e+00
1
Step 280000
Ar -8.284047e-01 0.000000e+00 0.000000e+00
1
Step 281000
Ar -8.222071e-01 0.000000e+00 0.000000e+00
1
Step 282000
Ar -8.146008e-01 0.000000e+00 0.000000e+00
1
Step 283000
Ar -8.079205e-01 0.000000e+00 0.000000e+00
1
Step 284000
Ar -1.186209e+00 0.000000e+00 0.000000e+00
1
Step 285000
Ar -1.035766e+00 0.000000e+00 0.000000e+00
1
Step 286000
Ar -1.011043e+00 0.000000e+00 0.000000e+00
1
Step 287000
Ar -1.073329e+00 0.000000e+00 0.000000e+00
1
Step 288000
Ar -1.113254e+00 0.000000e+00 0.000000e+00
1
Step 289000
Ar -1.240796e+00 0.000000e+00 0.000000e+00
1
Step 290000
Ar -1.056072e+00 0.000000e+00 0.000000e+00
1
Step 291000
Ar -1.147472e+00 0.000000e+00 0.000000e+00
1
Step 292000
Ar -1.110176e+00 0.000000e+00 0.000000e+00
1
Step 293000
Ar -1.141895e+00 0.000000e+00 0.000000e+00
1
Step 294000
Ar -1.103638e+00 0.000000e+00 0.000000e+00
1
Step 295000
Ar -1.163373e+00 0.000000e+00 0.000000e+00
1
Step 296000
Ar -1.155231e+00 0.000000e+00 0.000000e+00
1
Step 297000
Ar -1.132745e+00 0.000000e+00 0.000000e+00
1
Step 298000
Ar -1.152734e+00 0.000000e+00 0.000000e+00
1
Step 299000
Ar -1.183186e+00 0.000000e+00 0.000000e+00
1
Step 300000
Ar -1.112205e+00 0.000000e+00 0.000000e+00
1
Step 301000
Ar -1.017955e+00 0.000000e+00 0.000000e+00
1
Step 302000
Ar -1.011349e+00 0.000000e+00 0.000000e+00
1
Step 303000
Ar -1.016257e+00 0.000000e+00 0.000000e+00
1
Step 304000
Ar -1.052566e+00 0.000000e+00 0.000000e+00
1
Step 305000
Ar -1.055501e+00 0.000000e+00 0.000000e+00
1
Step 306000
Ar -1.047003e+00 0.000000e+00 0.000000e+00
1
Step 307000
Ar -1.044473e+00 0.000000e+00 0.000000e+00
1
Step 308000
Ar -9.515707e-01 0.000000e+00 0.000000e+00
1
Step 309000
Ar -9.431994e-01 0.000000e+00 0.000000e+00
1
Step 310000
Ar -9.396704e-01 0.000000e+00 0.000000e+00
1
Step 311000
Ar -9.384705e-01 0.000000e+00 0.000000e+00
1
Step 312000
Ar -9.438315e-01 0.000000e+00 0.000000e+00
1
Step 313000
Ar -9.376965e-01 0.000000e+00 0.000000e+00
1
Step 314000
Ar -9.384535e-01 0.000000e+00 0.000000e+00
1
Step 315000
Ar -9.468703e-01 0.000000e+00 0.000000e+00
1
Step 316000
Ar -9.376107e-01 0.000000e+00 0.000000e+00
1
Step 317000
Ar -9.598971e-01 0.000000e+00 0.000000e+00
1
Step 318000
Ar -1.001385e+00 0.000000e+00 0.000000e+00
1
Step 319000
Ar -1.013963e+00 0.000000e+00 0.000000e+00
1
Step 320000
Ar -1.009801e+00 0.000000e+00 0.000000e+00
1
Step 321000
Ar -9.602819e-01 0.000000e+00 0.000000e+00
1
Step 322000
Ar -9.606667e-01 0.000000e+00 0.000000e+00
1
Step 323000
Ar -9.611998e-01 0.000000e+00 0.000000e+00
1
Step 324000
Ar -9.570066e-01 0.000000e+00 0.000000e+00
1
Step 325000
Ar -9.632686e-01 0.000000e+00 0.000000e+00
1
Step 326000
Ar -9.556317e-01 0.000000e+00 0.000000e+00
1
Step 327000
Ar -9.624692e-01 0.000000e+00 0.000000e+00
1
Step 328000
Ar -9.581645e-01 0.000000e+00 0.000000e+00
1
Step 329000
Ar -1.024315e+00 0.000000e+00 0.000000e+00
1
Step 330000
Ar -9.988345e-01 0.000000e+00 0.000000e+00
1
Step 331000
Ar -8.857386e-01 0.000000e+00 0.000000e+00
1
Step 332000
Ar -8.923129e-01 0.000000e+00 0.000000e+00
1
Step 333000
Ar -8.842501e-01 0.000000e+00 0.000000e+00
1
Step 334000
Ar -8.953779e-01 0.000000e+00 0.000000e+00
1
Step 335000
Ar -8.815517e-01 0.000000e+00 0.000000e+00
1
Step 336000
Ar -8.826392e-01 0.000000e+00 0.000000e+00
1
Step 337000
Ar -8.908190e-01 0.000000e+00 0.000000e+00
1
Step 338000
Ar -8.816938e-01 0.000000e+00 0.000000e+00
1
Step 339000
Ar -8.921132e-01 0.000000e+00 0.000000e+00
1
Step 340000
Ar -8.860921e-01 0.000000e+00 0.000000e+00
1
Step 341000
Ar -8.885102e-01 0.000000e+00 0.000000e+00
1
Step 342000
Ar -8.804344e-01 0.000000e+00 0.000000e+00
1
Step 343000
Ar -8.811117e-01 0.000000e+00 0.000000e+00
1
Step 344000
Ar -8.918542e-01 0.000000e+00 0.000000e+00
1
Step 345000
Ar -8.902761e-01 0.000000e+00 0.000000e+00
1
Step 346000
Ar -8.826294e-01 0.000000e+00 0.000000e+00
1
Step 347000
Ar -8.895299e-01 0.000000e+00 0.000000e+00
1
Step 348000
Ar -8.824578e-01 0.000000e+00 0.000000e+00
1
Step 349000
Ar -8.800159e-01 0.000000e+00 0.000000e+00
1
Step 350000
Ar -8.894990e-01 0.000000e+00 0.000000e+00
1
Step 351000
Ar -8.896604e-01 0.000000e+00 0.000000e+00
1
Step 352000
Ar -8.851712e-01 0.000000e+00 0.000000e+00
1
Step 353000
Ar -8.818723e-01 0.000000e+00 0.000000e+00
1
Step 354000
Ar -8.916145e-01 0.000000e+00 0.000000e+00
1
Step 355000
Ar -1.174006e+00 0.000000e+00 0.000000e+00
1
Step 356000
Ar -1.365068e+00 0.000000e+00 0.000000e+00
1
Step 357000
Ar -1.203944e+00 0.000000e+00 0.000000e+00
1
Step 358000
Ar -1.208735e+00 0.000000e+00 0.000000e+00
1
Step 359000
Ar -1.197505e+00 0.000000e+00 0.000000e+00
1
Step 360000
Ar -1.345312e+00 0.000000e+00 0.000000e+00
1
Step 361000
Ar -1.155715e+00 0.000000e+00 0.000000e+00
1
Step 362000
Ar -1.153921e+00 0.000000e+00 0.000000e+00
1
Step 363000
Ar -1.152769e+00 0.000000e+00 0.000000e+00
1
Step 364000
Ar -1.154283e+00 0.000000e+00 0.000000e+00
1
Step 365000
Ar -1.155892e+00 0.000000e+00 0.000000e+00
1
Step 366000
Ar -1.153866e+00 0.000000e+00 0.000000e+00
1
Step 367000
Ar -1.149214e+00 0.000000e+00 0.000000e+00
1
Step 368000
Ar -1.162256e+00 0.000000e+00 0.000000e+00
1
Step 369000
Ar -1.195232e+00 0.000000e+00 0.000000e+00
1
Step 370000
Ar -1.194802e+00 0.000000e+00 0.000000e+00
1
Step 371000
Ar -1.196140e+00 0.000000e+00 0.000000e+00
1
Step 372000
Ar -1.197241e+00 0.000000e+00 0.000000e+00
1
Step 373000
Ar -1.199041e+00 0.000000e+00 0.000000e+00
1
Step 374000
Ar -1.191767e+00 0.000000e+00 0.000000e+00
1
Step 375000
Ar -1.193595e+00 0.000000e+00 0.000000e+00
1
Step 376000
Ar -1.197046e+00 0.000000e+00 0.000000e+00
1
Step 377000
Ar -1.196013e+00 0.000000e+00 0.000000e+00
1
Step 378000
Ar -1.196762e+00 0.000000e+00 0.000000e+00
1
Step 379000
Ar -1.301250e+00 0.000000e+00 0.000000e+00
1
Step 380000
Ar -1.249876e+00 0.000000e+00 0.000000e+00
1
Step 381000
Ar -1.225325e+00 0.000000e+00 0.000000e+00
1
Step 382000
Ar -1.303675e+00 0.000000e+00 0.000000e+00
1
Step 383000
Ar 4.577532e-01 0.000000e+00 0.000000e+00
1
Step 384000
Ar 5.375480e-01 0.000000e+00 0.000000e+00
1
Step 385000
Ar 5.648131e-01 0.000000e+00 0.000000e+00
1
Step 386000
Ar 5.537234e-01 0.000000e+00 0.000000e+00
1
Step 387000
Ar 5.196573e-01 0.000000e+00 0.000000e+00
1
Step 388000
Ar 5.472984e-01 0.000000e+00 0.000000e+00
1
Step 389000
Ar 5.633129e-01 0.000000e+00 0.000000e+00
1
Step 390000
Ar 4.993832e-01 0.000000e+00 0.000000e+00
1
Step 391000
Ar 1.253413e+00 0.000000e+00 0.000000e+00
1
Step 392000
Ar 1.246201e+00 0.000000e+00 0.000000e+00
1
Step 393000
Ar 1.287662e+00 0.000000e+00 0.000000e+00
1
Step 394000
Ar 1.300332e+00 0.000000e+00 0.000000e+00
1
Step 395000
Ar 1.282195e+00 0.000000e+00 0.000000e+00
1
Step 396000
Ar 1.319476e+00 0.000000e+00 0.000000e+00
1
Step 397000
Ar 1.318535e+00 0.000000e+00 0.000000e+00
1
Step 398000
Ar 1.287229e+00 0.000000e+00 0.000000e+00
1
Step 399000
Ar 1.303822e+00 0.000000e+00 0.000000e+00
1
Step 400000
Ar 1.300201e+00 0.000000e+00 0.000000e+00
1
Step 401000
Ar 1.321062e+00 0.000000e+00 0.000000e+00
1
Step 402000
Ar 1.309037e+00 0.000000e+00 0.000000e+00
1
Step 403000
Ar 1.344516e+00 0.000000e+00 0.000000e+00
1
Step 404000
Ar 1.337194e+00 0.000000e+00 0.000000e+00
1
Step 405000
Ar 1.334323e+00 0.000000e+00 0.000000e+00
1
Step 406000
Ar 1.066412e+00 0.000000e+00 0.000000e+00
1
Step 407000
Ar 1.069202e+00 0.000000e+00 0.000000e+00
1
Step 408000
Ar 1.161522e+00 0.000000e+00 0.000000e+00
1
Step 409000
Ar 1.163017e+00 0.000000e+00 0.000000e+00
1
Step 410000
Ar 1.180056e+00 0.000000e+00 0.000000e+00
1
Step 411000
Ar 1.162244e+00 0.000000e+00 0.000000e+00
1
Step 412000
Ar 1.159883e+00 0.000000e+00 0.000000e+00
1
Step 413000
Ar 1.167115e+00 0.000000e+00 0.000000e+00
1
Step 414000
Ar 1.158412e+00 0.000000e+00 0.000000e+00
1
Step 415000
Ar 1.175576e+00 0.000000e+00 0.000000e+00
1
Step 416000
Ar 1.165158e+00 0.000000e+00 0.000000e+00
1
Step 417000
Ar 1.174868e+00 0.000000e+00 0.000000e+00
1
Step 418000
Ar 1.124641e+00 0.000000e+00 0.000000e+00
1
Step 419000
Ar 1.109958e+00 0.000000e+00 0.000000e+00
1
Step 420000
Ar 1.129965e+00 0.000000e+00 0.000000e+00
1
Step 421000
Ar 1.110279e+00 0.000000e+00 0.000000e+00
1
Step 422000
Ar 1.115495e+00 0.000000e+00 0.000000e+00
1
Step 423000
Ar 1.108471e+00 0.000000e+00 0.000000e+00
1
Step 424000
Ar 1.125534e+00 0.000000e+00 0.000000e+00
1
Step 425000
Ar 1.155638e+00 0.000000e+00 0.000000e+00
1
Step 426000
Ar 1.158464e+00 0.000000e+00 0.000000e+00
1
Step 427000
Ar 1.151614e+00 0.000000e+00 0.000000e+00
1
Step 428000
Ar 1.155429e+00 0.000000e+00 0.000000e+00
1
Step 429000
Ar 1.131673e+00 0.000000e+00 0.000000e+00
1
Step 430000
Ar 1.131664e+00 0.000000e+00 0.000000e+00
1
Step 431000
Ar 1.128519e+00 0.000000e+00 0.000000e+00
1
Step 432000
Ar 1.118870e+00 0.000000e+00 0.000000e+00
1
Step 433000
Ar 1.116622e+00 0.000000e+00 0.000000e+00
1
Step 434000
Ar 1.114281e+00 0.000000e+00 0.000000e+00
1
Step 435000
Ar 1.112972e+00 0.000000e+00 0.000000e+00
1
Step 436000
Ar 1.118795e+00 0.000000e+00 0.000000e+00
1
Step 437000
Ar 1.115241e+00 0.000000e+00 0.000000e+00
1
Step 438000
Ar 1.121997e+00 0.000000e+00 0.000000e+00
1
Step 439000
Ar 8.249941e-01 0.000000e+00 0.000000e+00
1
Step 440000
Ar 8.177256e-01 0.000000e+00 0.000000e+00
1
Step 441000
Ar 8.385817e-01 0.000000e+00 0.000000e+00
1
Step 442000
Ar 8.112565e-01 0.000000e+00 0.000000e+00
1
Step 443000
Ar 8.224105e-01 0.000000e+00 0.000000e+00
1
Step 444000
Ar 8.325748e-01 0.000000e+00 0.000000e+00
1
Step 445000
Ar 8.279878e-01 0.000000e+00 0.000000e+00
1
Step 446000
Ar 8.380899e-01 0.000000e+00 0.000000e+00
1
Step 447000
Ar 8.270952e-01 0.000000e+00 0.000000e+00
1
Step 448000
Ar 6.757745e-01 0.000000e+00 0.000000e+00
1
Step 449000
Ar 6.976118e-01 0.000000e+00 0.000000e+00
1
Step 450000
Ar 6.837475e-01 0.000000e+00 0.000000e+00
1
Step 451000
Ar 6.920968e-01 0.000000e+00 0.000000e+00
1
Step 452000
Ar 6.944754e-01 0.000000e+00 0.000000e+00
1
Step 453000
Ar 6.739467e-01 0.000000e+00 0.000000e+00
1
Step 454000
Ar 6.885470e-01 0.000000e+00 0.000000e+00
1
Step 455000
Ar 7.670102e-01 0.000000e+00 0.000000e+00
1
Step 456000
Ar 7.645995e-01 0.000000e+00 0.000000e+00
1
Step 457000
Ar 7.314485e-01 0.000000e+00 0.000000e+00
1
Step 458000
Ar 7.822732e-01 0.000000e+00 0.000000e+00
1
Step 459000
Ar 7.308345e-01 0.000000e+00 0.000000e+00
1
Step 460000
Ar 7.367222e-01 0.000000e+00 0.000000e+00
1
Step 461000
Ar 7.327267e-01 0.000000e+00 0.000000e+00
1
Step 462000
Ar 7.322822e-01 0.000000e+00 0.000000e+00
1
Step 463000
Ar 7.344853e-01 0.000000e+00 0.000000e+00
1
Step 464000
Ar 7.383497e-01 0.000000e+00 0.000000e+00
1
Step 465000
Ar 6.952721e-01 0.000000e+00 0.000000e+00
1
Step 466000
Ar 6.847181e-01 0.000000e+00 0.000000e+00
1
Step 467000
Ar 7.623403e-01 0.000000e+00 0.000000e+00
1
Step 468000
Ar 7.667560e-01 0.000000e+00 0.000000e+00
1
Step 469000
Ar 6.140815e-01 0.000000e+00 0.000000e+00
1
Step 470000
Ar 6.149217e-01 0.000000e+00 0.000000e+00
1
Step 471000
Ar 6.040723e-01 0.000000e+00 0.000000e+00
1
Step 472000
Ar 6.208401e-01 0.000000e+00 0.000000e+00
1
Step 473000
Ar 6.300264e-01 0.000000e+00 0.000000e+00
1
Step 474000
Ar 6.259302e-01 0.000000e+00 0.000000e+00
1
Step 475000
Ar 6.181943e-01 0.000000e+00 0.000000e+00
1
Step 476000
Ar 6.252344e-01 0.000000e+00 0.000000e+00
1
Step 477000
Ar 6.135527e-01 0.000000e+00 0.000000e+00
1
Step 478000
Ar 7.762577e-01 0.000000e+00 0.000000e+00
1
Step 479000
Ar 7.715531e-01 0.000000e+00 0.000000e+00
1
Step 480000
Ar 1.257698e+00 0.000000e+00 0.000000e+00
1
Step 481000
Ar 1.256440e+00 0.000000e+00 0.000000e+00
1
Step 482000
Ar 1.254815e+00 0.000000e+00 0.000000e+00
1
Step 483000
Ar 1.254407e+00 0.000000e+00 0.000000e+00
1
Step 484000
Ar 1.255385e+00 0.000000e+00 0.000000e+00
1
Step 485000
Ar 1.258290e+00 0.000000e+00 0.000000e+00
1
Step 486000
Ar 1.253524e+00 0.000000e+00 0.000000e+00
1
Step 487000
Ar 1.258491e+00 0.000000e+00 0.000000e+00
1
Step 488000
Ar 1.252477e+00 0.000000e+00 0.000000e+00
1
Step 489000
Ar 1.175974e+00 0.000000e+00 0.000000e+00
1
Step 490000
Ar 1.180243e+00 0.000000e+00 0.000000e+00
1
Step 491000
Ar 1.175189e+00 0.000000e+00 0.000000e+00
1
Step 492000
Ar 8.429207e-01 0.000000e+00 0.000000e+00
1
Step 493000
Ar 8.402154e-01 0.000000e+00 0.000000e+00
1
Step 494000
Ar 8.408903e-01 0.000000e+00 0.000000e+00
1
Step 495000
Ar 8.420181e-01 0.000000e+00 0.000000e+00
1
Step 496000
Ar 8.366173e-01 0.000000e+00 0.000000e+00
1
Step 497000
Ar 8.407486e-01 0.000000e+00 0.000000e+00
1
Step 498000
Ar 8.415661e-01 0.000000e+00 0.000000e+00
1
Step 499000
Ar 8.424717e-01 0.000000e+00 0.000000e+00
1
Step 500000
Ar 1.073296e+00 0.000000e+00 0.000000e+00
1
Step 501000
Ar 9.567979e-01 0.000000e+00 0.000000e+00
1
Step 502000
Ar 9.551665e-01 0.000000e+00 0.000000e+00
1
Step 503000
Ar 9.533584e-01 0.000000e+00 0.000000e+00
1
Step 504000
Ar 9.523377e-01 0.000000e+00 0.000000e+00
1
Step 505000
Ar 9.491390e-01 0.000000e+00 0.000000e+00
1
Step 506000
Ar 9.660621e-01 0.000000e+00 0.000000e+00
1
Step 507000
Ar 9.653712e-01 0.000000e+00 0.000000e+00
1
Step 508000
Ar 9.237828e-01 0.000000e+00 0.000000e+00
1
Step 509000
Ar 9.206493e-01 0.000000e+00 0.000000e+00
1
Step 510000
Ar 9.204750e-01 0.000000e+00 0.000000e+00
1
Step 511000
Ar 9.197961e-01 0.000000e+00 0.000000e+00
1
Step 512000
Ar 9.192633e-01 0.000000e+00 0.000000e+00
1
Step 513000
Ar 9.247684e-01 0.000000e+00 0.000000e+00
1
Step 514000
Ar 9.239325e-01 0.000000e+00 0.000000e+00
1
Step 515000
Ar 9.209889e-01 0.000000e+00 0.000000e+00
1
Step 516000
Ar 9.278681e-01 0.000000e+00 0.000000e+00
1
Step 517000
Ar 9.250553e-01 0.000000e+00 0.000000e+00
1
Step 518000
Ar 9.648738e-01 0.000000e+00 0.000000e+00
1
Step 519000
Ar 9.636565e-01 0.000000e+00 0.000000e+00
1
Step 520000
Ar 9.472478e-01 0.000000e+00 0.000000e+00
1
Step 521000
Ar 1.068869e+00 0.000000e+00 0.000000e+00
1
Step 522000
Ar 1.153876e+00 0.000000e+00 0.000000e+00
1
Step 523000
Ar 1.177591e+00 0.000000e+00 0.000000e+00
1
Step 524000
Ar 8.737945e-01 0.000000e+00 0.000000e+00
1
Step 525000
Ar -4.446913e-01 0.000000e+00 0.000000e+00
1
Step 526000
Ar -5.246053e-01 0.000000e+00 0.000000e+00
1
Step 527000
Ar -5.375240e-01 0.000000e+00 0.000000e+00
1
Step 528000
Ar -5.091443e-01 0.000000e+00 0.000000e+00
1
Step 529000
Ar -5.037204e-01 0.000000e+00 0.000000e+00
1
Step 530000
Ar -5.101117e-01 0.000000e+00 0.000000e+00
1
Step 531000
Ar -5.171079e-01 0.000000e+00 0.000000e+00
1
Step 532000
Ar -4.860303e-01 0.000000e+00 0.000000e+00
1
Step 533000
Ar -5.157488e-01 0.000000e+00 0.000000e+00
1
Step 534000
Ar -4.536940e-01 0.000000e+00 0.000000e+00
1
Step 535000
Ar -4.797737e-01 0.000000e+00 0.000000e+00
1
Step 536000
Ar -5.395847e-01 0.000000e+00 0.000000e+00
1
Step 537000
Ar -5.476886e-01 0.000000e+00 0.000000e+00
1
Step 538000
Ar -5.197286e-01 0.000000e+00 0.000000e+00
1
Step 539000
Ar -5.438400e-01 0.000000e+00 0.000000e+00
1
Step 540000
Ar -5.399130e-01 0.000000e+00 0.000000e+00
1
Step 541000
Ar -4.333868e-01 0.000000e+00 0.000000e+00
1
Step 542000
Ar -5.321502e-01 0.000000e+00 0.000000e+00
1
Step 543000
Ar -4.782249e-01 0.000000e+00 0.000000e+00
1
Step 544000
Ar -4.715811e-01 0.000000e+00 0.000000e+00
1
Step 545000
Ar -4.723276e-01 0.000000e+00 0.000000e+00
1
Step 546000
Ar -4.398764e-01 0.000000e+00 0.000000e+00
1
Step 547000
Ar -5.464662e-01 0.000000e+00 0.000000e+00
1
Step 548000
Ar -5.080203e-01 0.000000e+00 0.000000e+00
1
Step 549000
Ar -5.492978e-01 0.000000e+00 0.000000e+00
1
Step 550000
Ar -5.055801e-01 0.000000e+00 0.000000e+00
1
Step 551000
Ar -4.406643e-01 0.000000e+00 0.000000e+00
1
Step 552000
Ar -5.428276e-01 0.000000e+00 0.000000e+00
1
Step 553000
Ar -5.115021e-01 0.000000e+00 0.000000e+00
1
Step 554000
Ar -5.298203e-01 0.000000e+00 0.000000e+00
1
Step 555000
Ar -4.712232e-01 0.000000e+00 0.000000e+00
1
Step 556000
Ar -3.897619e-01 0.000000e+00 0.000000e+00
1
Step 557000
Ar -3.900942e-01 0.000000e+00 0.000000e+00
1
Step 558000
Ar -3.384163e-01 0.000000e+00 0.000000e+00
1
Step 559000
Ar -3.812415e-01 0.000000e+00 0.000000e+00
1
Step 560000
Ar -3.104722e-01 0.000000e+00 0.000000e+00
1
Step 561000
Ar -3.359300e-01 0.000000e+00 0.000000e+00
1
Step 562000
Ar -4.030253e-01 0.000000e+00 0.000000e+00
1
Step 563000
Ar -3.257490e-01 0.000000e+00 0.000000e+00
1
Step 564000
Ar -1.764462e-01 0.000000e+00 0.000000e+00
1
Step 565000
Ar 4.004427e-01 0.000000e+00 0.000000e+00
1
Step 566000
Ar 3.592025e-01 0.000000e+00 0.000000e+00
1
Step 567000
Ar 4.098901e-01 0.000000e+00 0.000000e+00
1
Step 568000
Ar 3.611793e-01 0.000000e+00 0.000000e+00
1
Step 569000
Ar 3.954296e-01 0.000000e+00 0.000000e+00
1
Step 570000
Ar 4.176407e-01 0.000000e+00 0.000000e+00
1
Step 571000
Ar -9.899616e-02 0.000000e+00 0.000000e+00
1
Step 572000
Ar 2.356948e-01 0.000000e+00 0.000000e+00
1
Step 573000
Ar 4.178654e-01 0.000000e+00 0.000000e+00
1
Step 574000
Ar 4.256281e-01 0.000000e+00 0.000000e+00
1
Step 575000
Ar 3.269214e-01 0.000000e+00 0.000000e+00
1
Step 576000
Ar 3.743654e-01 0.000000e+00 0.000000e+00
1
Step 577000
Ar -1.998610e-01 0.000000e+00 0.000000e+00
1
Step 578000
Ar -1.859020e-01 0.000000e+00 0.000000e+00
1
Step 579000
Ar 1.754544e-01 0.000000e+00 0.000000e+00
1
Step 580000
Ar 4.110284e-01 0.000000e+00 0.000000e+00
1
Step 581000
Ar 2.133258e-01 0.000000e+00 0.000000e+00
1
Step 582000
Ar 4.119542e-01 0.000000e+00 0.000000e+00
1
Step 583000
Ar -5.234281e-02 0.000000e+00 0.000000e+00
1
Step 584000
Ar -2.446340e-01 0.000000e+00 0.000000e+00
1
Step 585000
Ar -4.899948e-02 0.000000e+00 0.000000e+00
1
Step 586000
Ar 3.786835e-01 0.000000e+00 0.000000e+00
1
Step 587000
Ar 3.796719e-01 0.000000e+00 0.000000e+00
1
Step 588000
Ar 2.591026e-01 0.000000e+00 0.000000e+00
1
Step 589000
Ar -2.476530e-01 0.000000e+00 0.000000e+00
1
Step 590000
Ar 1.271270e-01 0.000000e+00 0.000000e+00
1
Step 591000
Ar 1.341579e-01 0.000000e+00 0.000000e+00
1
Step 592000
Ar 9.057293e-02 0.000000e+00 0.000000e+00
1
Step 593000
Ar 8.724552e-02 0.000000e+00 0.000000e+00
1
Step 594000
Ar 6.090159e-02 0.000000e+00 0.000000e+00
1
Step 595000
Ar -1.394903e-01 0.000000e+00 0.000000e+00
1
Step 596000
Ar 2.052911e-01 0.000000e+00 0.000000e+00
1
Step 597000
Ar 2.623380e-01 0.000000e+00 0.000000e+00
1
Step 598000
Ar 2.610524e-01 0.000000e+00 0.000000e+00
1
Step 599000
Ar -2.505262e-01 0.000000e+00 0.000000e+00
1
Step 600000
Ar 2.737480e-01 0.000000e+00 0.000000e+00
1
Step 601000
Ar 2.606661e-01 0.000000e+00 0.000000e+00
1
Step 602000
Ar 2.670519e-01 0.000000e+00 0.000000e+00
1
Step 603000
Ar 2.612390e-01 0.000000e+00 0.000000e+00
1
Step 604000
Ar 2.671904e-01 0.000000e+00 0.000000e+00
1
Step 605000
Ar 2.733627e-01 0.000000e+00 0.000000e+00
1
Step 606000
Ar 2.667625e-01 0.000000e+00 0.000000e+00
1
Step 607000
Ar 2.741790e-01 0.000000e+00 0.000000e+00
1
Step 608000
Ar 2.737732e-01 0.000000e+00 0.000000e+00
1
Step 609000
Ar 2.691256e-01 0.000000e+00 0.000000e+00
1
Step 610000
Ar 2.748603e-01 0.000000e+00 0.000000e+00
1
Step 611000
Ar 2.648520e-01 0.000000e+00 0.000000e+00
1
Step 612000
Ar 2.699547e-01 0.000000e+00 0.000000e+00
1
Step 613000
Ar -2.072503e-01 0.000000e+00 0.000000e+00
1
Step 614000
Ar -8.068372e-02 0.000000e+00 0.000000e+00
1
Step 615000
Ar -8.744298e-02 0.000000e+00 0.000000e+00
1
Step 616000
Ar -2.669270e-01 0.000000e+00 0.000000e+00
1
Step 617000
Ar 1.830190e-01 0.000000e+00 0.000000e+00
1
Step 618000
Ar -1.981024e-01 0.000000e+00 0.000000e+00
1
Step 619000
Ar -2.687488e-01 0.000000e+00 0.000000e+00
1
Step 620000
Ar -1.998293e-01 0.000000e+00 0.000000e+00
1
Step 621000
Ar -6.779922e-02 0.000000e+00 0.000000e+00
1
Step 622000
Ar 2.199081e-01 0.000000e+00 0.000000e+00
1
Step 623000
Ar 1.779186e-01 0.000000e+00 0.000000e+00
1
Step 624000
Ar 2.317347e-01 0.000000e+00 0.000000e+00
1
Step 625000
Ar 1.457590e-01 0.000000e+00 0.000000e+00
1
Step 626000
Ar 2.019226e-01 0.000000e+00 0.000000e+00
1
Step 627000
Ar 2.341054e-01 0.000000e+00 0.000000e+00
1
Step 628000
Ar 6.289726e-02 0.000000e+00 0.000000e+00
1
Step 629000
Ar -9.045465e-03 0.000000e+00 0.000000e+00
1
Step 630000
Ar 5.224532e-02 0.000000e+00 0.000000e+00
1
Step 631000
Ar 4.689892e-02 0.000000e+00 0.000000e+00
1
Step 632000
Ar 2.081772e-01 0.000000e+00 0.000000e+00
1
Step 633000
Ar 1.214315e-01 0.000000e+00 0.000000e+00
1
Step 634000
Ar 2.398795e-01 0.000000e+00 0.000000e+00
1
Step 635000
Ar 1.025167e-01 0.000000e+00 0.000000e+00
1
Step 636000
Ar 1.782698e-01 0.000000e+00 0.000000e+00
1
Step 637000
Ar 5.681861e-02 0.000000e+00 0.000000e+00
1
Step 638000
Ar 2.112978e-01 0.000000e+00 0.000000e+00
1
Step 639000
Ar 1.097293e-02 0.000000e+00 0.000000e+00
1
Step 640000
Ar 1.118367e-02 0.000000e+00 0.000000e+00
1
Step 641000
Ar 8.550897e-02 0.000000e+00 0.000000e+00
1
Step 642000
Ar 1.762034e-02 0.000000e+00 0.000000e+00
1
Step 643000
Ar 1.932225e-01 0.000000e+00 0.000000e+00
1
Step 644000
Ar 3.332500e-01 0.000000e+00 0.000000e+00
1
Step 645000
Ar 3.849980e-01 0.000000e+00 0.000000e+00
1
Step 646000
Ar 3.197428e-01 0.000000e+00 0.000000e+00
1
Step 647000
Ar 3.140131e-01 0.000000e+00 0.000000e+00
1
Step 648000
Ar 3.691772e-01 0.000000e+00 0.000000e+00
1
Step 649000
Ar 3.351044e-01 0.000000e+00 0.000000e+00
1
Step 650000
Ar 3.596881e-01 0.000000e+00 0.000000e+00
1