1
Step 120000
Ar 1.006705e+00 0.000000e+00 0.000000e+00
1
Step 121000
Ar 9.913707e-01 0.000000e+00 0.000000e+00
1
Step 122000
Ar 9.950471e-01 0.000000e+00 0.000000e+00
1
Step 123000
Ar 9.826101e-01 0.000000e+00 0.000000e+00
1
Step 124000
Ar 9.990172e-01 0.000000e+00 0.000000e+00
1
Step 125000
Ar 1.002751e+00 0.000000e+00 0.000000e+00
1
Step 126000
Ar 9.911466e-01 0.000000e+00 0.000000e+00
1
Step 127000
Ar 9.780394e-01 0.000000e+00 0.000000e+00
1
Step 128000
Ar 9.889463e-01 0.000000e+00 0.000000e+00
1
Step 129000
Ar 9.910158e-01 0.000000e+00 0.000000e+00
1
Step 130000
Ar 9.889519e-01 0.000000e+00 0.000000e+00
1
Step 131000
Ar 9.886611e-01 0.000000e+00 0.000000e+00
1
Step 132000
Ar 9.909069e-01 0.000000e+00 0.000000e+00
1
Step 133000
Ar 9.892416e-01 0.000000e+00 0.000000e+00
1
Step 134000
Ar 9.878335e-01 0.000000e+00 0.000000e+00
1
Step 135000
Ar 9.796791e-01 0.000000e+00 0.000000e+00
1
Step 136000
Ar 9.719789e-01 0.000000e+00 0.000000e+00
1
Step 137000
Ar 9.746302e-01 0.000000e+00 0.000000e+00
1
Step 138000
Ar 9.852924e-01 0.000000e+00 0.000000e+00
1
Step 139000
Ar 9.911188e-01 0.000000e+00 0.000000e+00
1
Step 140000
Ar 9.917272e-01 0.000000e+00 0.000000e+00
1
Step 141000
Ar 9.909699e-01 0.000000e+00 0.000000e+00
1
Step 142000
Ar 9.901115e-01 0.000000e+00 0.000000e+00
1
Step 143000
Ar 9.861421e-01 0.000000e+00 0.000000e+00
1
Step 144000
Ar 9.756211e-01 0.000000e+00 0.000000e+00
1
Step 145000
Ar 9.868260e-01 0.000000e+00 0.000000e+00
1
Step 146000
Ar 9.932701e-01 0.000000e+00 0.000000e+00
1
Step 147000
Ar 9.694947e-01 0.000000e+00 0.000000e+00
1
Step 148000
Ar 9.839983e-01 0.000000e+00 0.000000e+00
1
Step 149000
Ar 1.046236e+00 0.000000e+00 0.000000e+00
1
Step 150000
Ar 1.044016e+00 0.000000e+00 0.000000e+00
1
Step 151000
Ar 9.764681e-01 0.000000e+00 0.000000e+00
1
Step 152000
Ar 1.014579e+00 0.000000e+00 0.000000e+00
1
Step 153000
Ar 9.746958e-01 0.000000e+00 0.000000e+00
1
Step 154000
Ar 9.745095e-01 0.000000e+00 0.000000e+00
1
Step 155000
Ar 9.767494e-01 0.000000e+00 0.000000e+00
1
Step 156000
Ar 9.709540e-01 0.000000e+00 0.000000e+00
1
Step 157000
Ar 9.751819e-01 0.000000e+00 0.000000e+00
1
Step 158000
Ar 9.661212e-01 0.000000e+00 0.000000e+00
1
Step 159000
Ar 9.592405e-01 0.000000e+00 0.000000e+00
1
Step 160000
Ar 9.614548e-01 0.000000e+00 0.000000e+00
1
Step 161000
Ar 9.594089e-01 0.000000e+00 0.000000e+00
1
Step 162000
Ar 9.589812e-01 0.000000e+00 0.000000e+00
1
Step 163000
Ar 9.618829e-01 0.000000e+00 0.000000e+00
1
Step 164000
Ar 9.546596e-01 0.000000e+00 0.000000e+00
1
Step 165000
Ar 9.507724e-01 0.000000e+00 0.000000e+00
1
Step 166000
Ar 9.372750e-01 0.000000e+00 0.000000e+00
1
Step 167000
Ar 9.488457e-01 0.000000e+00 0.000000e+00
1
Step 168000
Ar 9.490121e-01 0.000000e+00 0.000000e+00
1
Step 169000
Ar 9.500802e-01 0.000000e+00 0.000000e+00
1
Step 170000
Ar 9.494363e-01 0.000000e+00 0.000000e+00
1
Step 171000
Ar 9.463780e-01 0.000000e+00 0.000000e+00
1
Step 172000
Ar 9.485644e-01 0.000000e+00 0.000000e+00
1
Step 173000
Ar 9.516008e-01 0.000000e+00 0.000000e+00
1
Step 174000
Ar 9.469879e-01 0.000000e+00 0.000000e+00
1
Step 175000
Ar 9.492094e-01 0.000000e+00 0.000000e+00
1
Step 176000
Ar 9.464341e-01 0.000000e+00 0.000000e+00
1
Step 177000
Ar 9.422523e-01 0.000000e+00 0.000000e+00
1
Step 178000
Ar 9.495626e-01 0.000000e+00 0.000000e+00
1
Step 179000
Ar 9.382956e-01 0.000000e+00 0.000000e+00
1
Step 180000
Ar 9.305887e-01 0.000000e+00 0.000000e+00
1
Step 181000
Ar 9.369773e-01 0.000000e+00 0.000000e+00
1
Step 182000
Ar 9.381433e-01 0.000000e+00 0.000000e+00
1
Step 183000
Ar 9.208149e-01 0.000000e+00 0.000000e+00
1
Step 184000
Ar 9.308154e-01 0.000000e+00 0.000000e+00
1
Step 185000
Ar 9.329402e-01 0.000000e+00 0.000000e+00
1
Step 186000
Ar 9.203167e-01 0.000000e+00 0.000000e+00
1
Step 187000
Ar 9.276888e-01 0.000000e+00 0.000000e+00
1
Step 188000
Ar 1.056106e+00 0.000000e+00 0.000000e+00
1
Step 189000
Ar 1.059777e+00 0.000000e+00 0.000000e+00
1
Step 190000
Ar 9.073366e-01 0.000000e+00 0.000000e+00
1
Step 191000
Ar 9.129653e-01 0.000000e+00 0.000000e+00
1
Step 192000
Ar 9.172784e-01 0.000000e+00 0.000000e+00
1
Step 193000
Ar 9.024820e-01 0.000000e+00 0.000000e+00
1
Step 194000
Ar 8.974669e-01 0.000000e+00 0.000000e+00
1
Step 195000
Ar 9.048072e-01 0.000000e+00 0.000000e+00
1
Step 196000
Ar 8.376807e-01 0.000000e+00 0.000000e+00
1
Step 197000
Ar 9.778345e-01 0.000000e+00 0.000000e+00
1
Step 198000
Ar 1.010515e+00 0.000000e+00 0.000000e+00
1
Step 199000
Ar 9.944971e-01 0.000000e+00 0.000000e+00
1
Step 200000
Ar 9.987195e-01 0.000000e+00 0.000000e+00
1
Step 201000
Ar 9.485212e-01 0.000000e+00 0.000000e+00
1
Step 202000
Ar 7.991729e-01 0.000000e+00 0.000000e+00
1
Step 203000
Ar 9.911291e-01 0.000000e+00 0.000000e+00
1
Step 204000
Ar 9.864969e-01 0.000000e+00 0.000000e+00
1
Step 205000
Ar 1.064902e+00 0.000000e+00 0.000000e+00
1
Step 206000
Ar 1.063202e+00 0.000000e+00 0.000000e+00
1
Step 207000
Ar 1.070393e+00 0.000000e+00 0.000000e+00
1
Step 208000
Ar 1.070933e+00 0.000000e+00 0.000000e+00
1
Step 209000
Ar 9.546649e-01 0.000000e+00 0.000000e+00
1
Step 210000
Ar 9.738720e-01 0.000000e+00 0.000000e+00
1
Step 211000
Ar 1.111860e+00 0.000000e+00 0.000000e+00
1
Step 212000
Ar 8.803943e-01 0.000000e+00 0.000000e+00
1
Step 213000
Ar 1.093821e+00 0.000000e+00 0.000000e+00
1
Step 214000
Ar 1.091784e+00 0.000000e+00 0.000000e+00
1
Step 215000
Ar 9.757441e-01 0.000000e+00 0.000000e+00
1
Step 216000
Ar 1.009976e+00 0.000000e+00 0.000000e+00
1
Step 217000
Ar 8.623686e-01 0.000000e+00 0.000000e+00
1
Step 218000
Ar 8.657415e-01 0.000000e+00 0.000000e+00
1
Step 219000
Ar 8.632453e-01 0.000000e+00 0.000000e+00
1
Step 220000
Ar 1.016939e+00 0.000000e+00 0.000000e+00
1
Step 221000
Ar 9.824186e-01 0.000000e+00 0.000000e+00
1
Step 222000
Ar 9.844433e-01 0.000000e+00 0.000000e+00
1
Step 223000
Ar 1.033149e+00 0.000000e+00 0.000000e+00
1
Step 224000
Ar 9.184935e-01 0.000000e+00 0.000000e+00
1
Step 225000
Ar 1.019419e+00 0.000000e+00 0.000000e+00
1
Step 226000
Ar 1.024687e+00 0.000000e+00 0.000000e+00
1
Step 227000
Ar 1.025646e+00 0.000000e+00 0.000000e+00
1
Step 228000
Ar 9.980414e-01 0.000000e+00 0.000000e+00
1
Step 229000
Ar 9.807717e-01 0.000000e+00 0.000000e+00
1
Step 230000
Ar 1.040925e+00 0.000000e+00 0.000000e+00
1
Step 231000
Ar 1.125189e+00 0.000000e+00 0.000000e+00
1
Step 232000
Ar 8.429753e-01 0.000000e+00 0.000000e+00
1
Step 233000
Ar 7.889069e-01 0.000000e+00 0.000000e+00
1
Step 234000
Ar 1.206564e+00 0.000000e+00 0.000000e+00
1
Step 235000
Ar 9.006335e-01 0.000000e+00 0.000000e+00
1
Step 236000
Ar 1.116658e+00 0.000000e+00 0.000000e+00
1
Step 237000
Ar 1.039870e+00 0.000000e+00 0.000000e+00
1
Step 238000
Ar 1.035046e+00 0.000000e+00 0.000000e+00
1
Step 239000
Ar 1.039862e+00 0.000000e+00 0.000000e+00
1
Step 240000
Ar 1.038371e+00 0.000000e+00 0.000000e+00
1
Step 241000
Ar 1.104432e+00 0.000000e+00 0.000000e+00
1
Step 242000
Ar 1.033526e+00 0.000000e+00 0.000000e+00
1
Step 243000
Ar 9.522946e-01 0.000000e+00 0.000000e+00
1
Step 244000
Ar 1.001713e+00 0.000000e+00 0.000000e+00
1
Step 245000
Ar 1.087944e+00 0.000000e+00 0.000000e+00
1
Step 246000
Ar 1.087361e+00 0.000000e+00 0.000000e+00
1
Step 247000
Ar 1.084724e+00 0.000000e+00 0.000000e+00
1
Step 248000
Ar 9.096856e-01 0.000000e+00 0.000000e+00
1
Step 249000
Ar 1.161969e+00 0.000000e+00 0.000000e+00
1
Step 250000
Ar 9.468589e-01 0.000000e+00 0.000000e+00
1
Step 251000
Ar 9.403631e-01 0.000000e+00 0.000000e+00
1
Step 252000
Ar 8.784872e-01 0.000000e+00 0.000000e+00
1
Step 253000
Ar 1.068638e+00 0.000000e+00 0.000000e+00
1
Step 254000
Ar 1.086018e+00 0.000000e+00 0.000000e+00
1
Step 255000
Ar 8.641270e-01 0.000000e+00 0.000000e+00
1
Step 256000
Ar 1.100656e+00 0.000000e+00 0.000000e+00
1
Step 257000
Ar 9.847487e-01 0.000000e+00 0.000000e+00
1
Step 258000
Ar 9.262387e-01 0.000000e+00 0.000000e+00
1
Step 259000
Ar 9.391660e-01 0.000000e+00 0.000000e+00
1
Step 260000
Ar 9.336557e-01 0.000000e+00 0.000000e+00
1
Step 261000
Ar 9.380439e-01 0.000000e+00 0.000000e+00
1
Step 262000
Ar 9.445453e-01 0.000000e+00 0.000000e+00
1
Step 263000
Ar 9.387456e-01 0.000000e+00 0.000000e+00
1
Step 264000
Ar 9.483985e-01 0.000000e+00 0.000000e+00
1
Step 265000
Ar 9.448159e-01 0.000000e+00 0.000000e+00
1
Step 266000
Ar 9.462502e-01 0.000000e+00 0.000000e+00
1
Step 267000
Ar 9.995972e-01 0.000000e+00 0.000000e+00
1
Step 268000
Ar 1.116690e+00 0.000000e+00 0.000000e+00
1
Step 269000
Ar 1.038494e+00 0.000000e+00 0.000000e+00
1
Step 270000
Ar 1.082208e+00 0.000000e+00 0.000000e+00
1
Step 271000
Ar 9.444222e-01 0.000000e+00 0.000000e+00
1
Step 272000
Ar 9.190738e-01 0.000000e+00 0.000000e+00
1
Step 273000
Ar 1.081297e+00 0.000000e+00 0.000000e+00
1
Step 274000
Ar 1.038717e+00 0.000000e+00 0.000000e+00
1
Step 275000
Ar 1.144927e+00 0.000000e+00 0.000000e+00
1
Step 276000
Ar 8.786146e-01 0.000000e+00 0.000000e+00
1
Step 277000
Ar 9.743251e-01 0.000000e+00 0.000000e+00
1
Step 278000
Ar 9.286014e-01 0.000000e+00 0.000000e+00
1
Step 279000
Ar 1.096760e+00 0.000000e+00 0.000000e+00
1
Step 280000
Ar 1.053948e+00 0.000000e+00 0.000000e+00
1
Step 281000
Ar 1.016083e+00 0.000000e+00 0.000000e+00
1
Step 282000
Ar 1.177092e+00 0.000000e+00 0.000000e+00
1
Step 283000
Ar 1.035294e+00 0.000000e+00 0.000000e+00
1
Step 284000
Ar 1.038020e+00 0.000000e+00 0.000000e+00
1
Step 285000
Ar 1.180978e+00 0.000000e+00 0.000000e+00
1
Step 286000
Ar 1.263152e+00 0.000000e+00 0.000000e+00
1
Step 287000
Ar 9.470609e-01 0.000000e+00 0.000000e+00
1
Step 288000
Ar 9.238169e-01 0.000000e+00 0.000000e+00
1
Step 289000
Ar 1.063168e+00 0.000000e+00 0.000000e+00
1
Step 290000
Ar 8.132379e-01 0.000000e+00 0.000000e+00
1
Step 291000
Ar 9.586692e-01 0.000000e+00 0.000000e+00
1
Step 292000
Ar 9.533358e-01 0.000000e+00 0.000000e+00
1
Step 293000
Ar 8.813469e-01 0.000000e+00 0.000000e+00
1
Step 294000
Ar 1.101356e+00 0.000000e+00 0.000000e+00
1
Step 295000
Ar 1.103452e+00 0.000000e+00 0.000000e+00
1
Step 296000
Ar 1.098738e+00 0.000000e+00 0.000000e+00
1
Step 297000
Ar 9.105721e-01 0.000000e+00 0.000000e+00
1
Step 298000
Ar 7.183407e-01 0.000000e+00 0.000000e+00
1
Step 299000
Ar 7.836435e-01 0.000000e+00 0.000000e+00
1
Step 300000
Ar 5.784040e-01 0.000000e+00 0.000000e+00
1
Step 301000
Ar 1.032161e+00 0.000000e+00 0.000000e+00
1
Step 302000
Ar 9.761791e-01 0.000000e+00 0.000000e+00
1
Step 303000
Ar 9.341179e-01 0.000000e+00 0.000000e+00
1
Step 304000
Ar 8.170092e-01 0.000000e+00 0.000000e+00
1
Step 305000
Ar 1.127017e+00 0.000000e+00 0.000000e+00
1
Step 306000
Ar 9.279383e-01 0.000000e+00 0.000000e+00
1
Step 307000
Ar 8.411130e-01 0.000000e+00 0.000000e+00
1
Step 308000
Ar 9.225705e-01 0.000000e+00 0.000000e+00
1
Step 309000
Ar 1.075005e+00 0.000000e+00 0.000000e+00
1
Step 310000
Ar 9.052155e-01 0.000000e+00 0.000000e+00
1
Step 311000
Ar 9.674060e-01 0.000000e+00 0.000000e+00
1
Step 312000
Ar 1.164825e+00 0.000000e+00 0.000000e+00
1
Step 313000
Ar 1.010742e+00 0.000000e+00 0.000000e+00
1
Step 314000
Ar 5.754038e-01 0.000000e+00 0.000000e+00
1
Step 315000
Ar 1.099120e+00 0.000000e+00 0.000000e+00
1
Step 316000
Ar 1.013223e+00 0.000000e+00 0.000000e+00
1
Step 317000
Ar 1.181405e+00 0.000000e+00 0.000000e+00
1
Step 318000
Ar 1.073413e+00 0.000000e+00 0.000000e+00
1
Step 319000
Ar 9.612802e-01 0.000000e+00 0.000000e+00
1
Step 320000
Ar 9.623099e-01 0.000000e+00 0.000000e+00
1
Step 321000
Ar 9.635372e-01 0.000000e+00 0.000000e+00
1
Step 322000
Ar 9.633507e-01 0.000000e+00 0.000000e+00
1
Step 323000
Ar 9.593145e-01 0.000000e+00 0.000000e+00
1
Step 324000
Ar 1.081844e+00 0.000000e+00 0.000000e+00
1
Step 325000
Ar 9.255273e-01 0.000000e+00 0.000000e+00
1
Step 326000
Ar 1.179921e+00 0.000000e+00 0.000000e+00
1
Step 327000
Ar 1.035663e+00 0.000000e+00 0.000000e+00
1
Step 328000
Ar 1.031266e+00 0.000000e+00 0.000000e+00
1
Step 329000
Ar 1.002777e+00 0.000000e+00 0.000000e+00
1
Step 330000
Ar 9.217798e-01 0.000000e+00 0.000000e+00
1
Step 331000
Ar 1.002372e+00 0.000000e+00 0.000000e+00
1
Step 332000
Ar 9.880947e-01 0.000000e+00 0.000000e+00
1
Step 333000
Ar 1.102298e+00 0.000000e+00 0.000000e+00
1
Step 334000
Ar 1.046885e+00 0.000000e+00 0.000000e+00
1
Step 335000
Ar 9.707881e-01 0.000000e+00 0.000000e+00
1
Step 336000
Ar 1.044555e+00 0.000000e+00 0.000000e+00
1
Step 337000
Ar 1.047080e+00 0.000000e+00 0.000000e+00
1
Step 338000
Ar 1.042085e+00 0.000000e+00 0.000000e+00
1
Step 339000
Ar 1.047837e+00 0.000000e+00 0.000000e+00
1
Step 340000
Ar 1.042842e+00 0.000000e+00 0.000000e+00
1
Step 341000
Ar 1.041930e+00 0.000000e+00 0.000000e+00
1
Step 342000
Ar 1.035631e+00 0.000000e+00 0.000000e+00
1
Step 343000
Ar 1.042286e+00 0.000000e+00 0.000000e+00
1
Step 344000
Ar 1.033905e+00 0.000000e+00 0.000000e+00
1
Step 345000
Ar 1.040300e+00 0.000000e+00 0.000000e+00
1
Step 346000
Ar 1.037829e+00 0.000000e+00 0.000000e+00
1
Step 347000
Ar 1.041287e+00 0.000000e+00 0.000000e+00
1
Step 348000
Ar 1.031027e+00 0.000000e+00 0.000000e+00
1
Step 349000
Ar 1.028740e+00 0.000000e+00 0.000000e+00
1
Step 350000
Ar 1.033426e+00 0.000000e+00 0.000000e+00
1
Step 351000
Ar 9.543884e-01 0.000000e+00 0.000000e+00
1
Step 352000
Ar 9.117364e-01 0.000000e+00 0.000000e+00
1
Step 353000
Ar 9.245079e-01 0.000000e+00 0.000000e+00
1
Step 354000
Ar 8.707578e-01 0.000000e+00 0.000000e+00
1
Step 355000
Ar 9.996820e-01 0.000000e+00 0.000000e+00
1
Step 356000
Ar 8.543923e-01 0.000000e+00 0.000000e+00
1
Step 357000
Ar 8.741941e-01 0.000000e+00 0.000000e+00
1
Step 358000
Ar 9.261665e-01 0.000000e+00 0.000000e+00
1
Step 359000
Ar 1.194978e+00 0.000000e+00 0.000000e+00
1
Step 360000
Ar 7.545586e-01 0.000000e+00 0.000000e+00
1
Step 361000
Ar 9.863751e-01 0.000000e+00 0.000000e+00
1
Step 362000
Ar 9.831924e-01 0.000000e+00 0.000000e+00
1
Step 363000
Ar 1.025281e+00 0.000000e+00 0.000000e+00
1
Step 364000
Ar 9.742045e-01 0.000000e+00 0.000000e+00
1
Step 365000
Ar 1.117751e+00 0.000000e+00 0.000000e+00
1
Step 366000
Ar 1.142727e+00 0.000000e+00 0.000000e+00
1
Step 367000
Ar 7.694875e-01 0.000000e+00 0.000000e+00
1
Step 368000
Ar 7.917000e-01 0.000000e+00 0.000000e+00
1
Step 369000
Ar 9.035380e-01 0.000000e+00 0.000000e+00
1
Step 370000
Ar 9.864767e-01 0.000000e+00 0.000000e+00
1
Step 371000
Ar 1.053866e+00 0.000000e+00 0.000000e+00
1
Step 372000
Ar 9.186916e-01 0.000000e+00 0.000000e+00
1
Step 373000
Ar 1.082445e+00 0.000000e+00 0.000000e+00
1
Step 374000
Ar 1.020822e+00 0.000000e+00 0.000000e+00
1
Step 375000
Ar 1.046777e+00 0.000000e+00 0.000000e+00
1
Step 376000
Ar 1.054932e+00 0.000000e+00 0.000000e+00
1
Step 377000
Ar 1.179176e+00 0.000000e+00 0.000000e+00
1
Step 378000
Ar 7.361687e-01 0.000000e+00 0.000000e+00
1
Step 379000
Ar 1.092788e+00 0.000000e+00 0.000000e+00
1
Step 380000
Ar 1.064283e+00 0.000000e+00 0.000000e+00
1
Step 381000
Ar 7.717714e-01 0.000000e+00 0.000000e+00
1
Step 382000
Ar 1.002137e+00 0.000000e+00 0.000000e+00
1
Step 383000
Ar 1.089444e+00 0.000000e+00 0.000000e+00
1
Step 384000
Ar 1.162294e+00 0.000000e+00 0.000000e+00
1
Step 385000
Ar 1.083456e+00 0.000000e+00 0.000000e+00
1
Step 386000
Ar 1.179936e+00 0.000000e+00 0.000000e+00
1
Step 387000
Ar 1.039278e+00 0.000000e+00 0.000000e+00
1
Step 388000
Ar 1.015387e+00 0.000000e+00 0.000000e+00
1
Step 389000
Ar 7.010000e-01 0.000000e+00 0.000000e+00
1
Step 390000
Ar 7.006884e-01 0.000000e+00 0.000000e+00
1
Step 391000
Ar 9.888011e-01 0.000000e+00 0.000000e+00
1
Step 392000
Ar 1.027099e+00 0.000000e+00 0.000000e+00
1
Step 393000
Ar 1.024950e+00 0.000000e+00 0.000000e+00
1
Step 394000
Ar 1.128858e+00 0.000000e+00 0.000000e+00
1
Step 395000
Ar 1.039868e+00 0.000000e+00 0.000000e+00
1
Step 396000
Ar 1.040324e+00 0.000000e+00 0.000000e+00
1
Step 397000
Ar 1.036303e+00 0.000000e+00 0.000000e+00
1
Step 398000
Ar 1.034741e+00 0.000000e+00 0.000000e+00
1
Step 399000
Ar 1.038207e+00 0.000000e+00 0.000000e+00
1
Step 400000
Ar 1.036901e+00 0.000000e+00 0.000000e+00
1
Step 401000
Ar 1.008018e+00 0.000000e+00 0.000000e+00
1
Step 402000
Ar 1.042072e+00 0.000000e+00 0.000000e+00
1
Step 403000
Ar 9.864581e-01 0.000000e+00 0.000000e+00
1
Step 404000
Ar 9.242581e-01 0.000000e+00 0.000000e+00
1
Step 405000
Ar 1.011276e+00 0.000000e+00 0.000000e+00
1
Step 406000
Ar 9.183530e-01 0.000000e+00 0.000000e+00
1
Step 407000
Ar 5.589507e-01 0.000000e+00 0.000000e+00
1
Step 408000
Ar 1.056309e+00 0.000000e+00 0.000000e+00
1
Step 409000
Ar 1.097924e+00 0.000000e+00 0.000000e+00
1
Step 410000
Ar 7.548333e-01 0.000000e+00 0.000000e+00
1
Step 411000
Ar 7.501715e-01 0.000000e+00 0.000000e+00
1
Step 412000
Ar 1.079270e+00 0.000000e+00 0.000000e+00
1
Step 413000
Ar 9.105936e-01 0.000000e+00 0.000000e+00
1
Step 414000
Ar 1.190129e+00 0.000000e+00 0.000000e+00
1
Step 415000
Ar 9.016403e-01 0.000000e+00 0.000000e+00
1
Step 416000
Ar 1.099055e+00 0.000000e+00 0.000000e+00
1
Step 417000
Ar 1.002211e+00 0.000000e+00 0.000000e+00
1
Step 418000
Ar 1.035294e+00 0.000000e+00 0.000000e+00
1
Step 419000
Ar 9.778443e-01 0.000000e+00 0.000000e+00
1
Step 420000
Ar 9.862604e-01 0.000000e+00 0.000000e+00
1
Step 421000
Ar 1.181165e+00 0.000000e+00 0.000000e+00
1
Step 422000
Ar 1.150345e+00 0.000000e+00 0.000000e+00
1
Step 423000
Ar 9.528676e-01 0.000000e+00 0.000000e+00
1
Step 424000
Ar 9.063788e-01 0.000000e+00 0.000000e+00
1
Step 425000
Ar 1.032140e+00 0.000000e+00 0.000000e+00
1
Step 426000
Ar 7.783988e-01 0.000000e+00 0.000000e+00
1
Step 427000
Ar 7.773492e-01 0.000000e+00 0.000000e+00
1
Step 428000
Ar 7.742223e-01 0.000000e+00 0.000000e+00
1
Step 429000
Ar 1.296424e+00 0.000000e+00 0.000000e+00
1
Step 430000
Ar 9.057738e-01 0.000000e+00 0.000000e+00
1
Step 431000
Ar 9.164022e-01 0.000000e+00 0.000000e+00
1
Step 432000
Ar 1.126098e+00 0.000000e+00 0.000000e+00
1
Step 433000
Ar 9.816888e-01 0.000000e+00 0.000000e+00
1
Step 434000
Ar 1.016803e+00 0.000000e+00 0.000000e+00
1
Step 435000
Ar 1.019908e+00 0.000000e+00 0.000000e+00
1
Step 436000
Ar 1.017378e+00 0.000000e+00 0.000000e+00
1
Step 437000
Ar 8.888582e-01 0.000000e+00 0.000000e+00
1
Step 438000
Ar 1.077989e+00 0.000000e+00 0.000000e+00
1
Step 439000
Ar 1.072021e+00 0.000000e+00 0.000000e+00
1
Step 440000
Ar 9.041985e-01 0.000000e+00 0.000000e+00
1
Step 441000
Ar 1.083983e+00 0.000000e+00 0.000000e+00
1
Step 442000
Ar 8.565354e-01 0.000000e+00 0.000000e+00
1
Step 443000
Ar 8.515050e-01 0.000000e+00 0.000000e+00
1
Step 444000
Ar 8.546582e-01 0.000000e+00 0.000000e+00
1
Step 445000
Ar 1.063015e+00 0.000000e+00 0.000000e+00
1
Step 446000
Ar 6.960285e-01 0.000000e+00 0.000000e+00
1
Step 447000
Ar 8.935235e-01 0.000000e+00 0.000000e+00
1
Step 448000
Ar 1.196274e+00 0.000000e+00 0.000000e+00
1
Step 449000
Ar -1.007459e+00 0.000000e+00 0.000000e+00
1
Step 450000
Ar -9.929919e-01 0.000000e+00 0.000000e+00
1
Step 451000
Ar -9.883280e-01 0.000000e+00 0.000000e+00
1
Step 452000
Ar -9.959099e-01 0.000000e+00 0.000000e+00
1
Step 453000
Ar -9.986233e-01 0.000000e+00 0.000000e+00
1
Step 454000
Ar -9.923837e-01 0.000000e+00 0.000000e+00
1
Step 455000
Ar -1.035846e+00 0.000000e+00 0.000000e+00
1
Step 456000
Ar -9.902968e-01 0.000000e+00 0.000000e+00
1
Step 457000
Ar -1.013469e+00 0.000000e+00 0.000000e+00
1
Step 458000
Ar -9.619392e-01 0.000000e+00 0.000000e+00
1
Step 459000
Ar -9.652429e-01 0.000000e+00 0.000000e+00
1
Step 460000
Ar -1.013793e+00 0.000000e+00 0.000000e+00
1
Step 461000
Ar -1.016620e+00 0.000000e+00 0.000000e+00
1
Step 462000
Ar -1.012679e+00 0.000000e+00 0.000000e+00
1
Step 463000
Ar -1.013136e+00 0.000000e+00 0.000000e+00
1
Step 464000
Ar -1.017561e+00 0.000000e+00 0.000000e+00
1
Step 465000
Ar -9.931472e-01 0.000000e+00 0.000000e+00
1
Step 466000
Ar -9.902621e-01 0.000000e+00 0.000000e+00
1
Step 467000
Ar -1.059940e+00 0.000000e+00 0.000000e+00
1
Step 468000
Ar -1.047423e+00 0.000000e+00 0.000000e+00
1
Step 469000
Ar -1.050283e+00 0.000000e+00 0.000000e+00
1
Step 470000
Ar -1.054280e+00 0.000000e+00 0.000000e+00
1
Step 471000
Ar -1.060357e+00 0.000000e+00 0.000000e+00
1
Step 472000
Ar -1.063854e+00 0.000000e+00 0.000000e+00
1
Step 473000
Ar -1.063172e+00 0.000000e+00 0.000000e+00
1
Step 474000
Ar -9.920150e-01 0.000000e+00 0.000000e+00
1
Step 475000
Ar -9.871877e-01 0.000000e+00 0.000000e+00
1
Step 476000
Ar -1.074420e+00 0.000000e+00 0.000000e+00
1
Step 477000
Ar -1.075027e+00 0.000000e+00 0.000000e+00
1
Step 478000
Ar -1.078265e+00 0.000000e+00 0.000000e+00
1
Step 479000
Ar -1.076041e+00 0.000000e+00 0.000000e+00
1
Step 480000
Ar -1.072416e+00 0.000000e+00 0.000000e+00
1
Step 481000
Ar -1.073025e+00 0.000000e+00 0.000000e+00
1
Step 482000
Ar -1.073724e+00 0.000000e+00 0.000000e+00
1
Step 483000
Ar -1.071830e+00 0.000000e+00 0.000000e+00
1
Step 484000
Ar -1.072269e+00 0.000000e+00 0.000000e+00
1
Step 485000
Ar -1.075462e+00 0.000000e+00 0.000000e+00
1
Step 486000
Ar -1.074672e+00 0.000000e+00 0.000000e+00
1
Step 487000
Ar -1.010126e+00 0.000000e+00 0.000000e+00
1
Step 488000
Ar -9.349555e-01 0.000000e+00 0.000000e+00
1
Step 489000
Ar -9.349955e-01 0.000000e+00 0.000000e+00
1
Step 490000
Ar -9.350362e-01 0.000000e+00 0.000000e+00
1
Step 491000
Ar -9.318027e-01 0.000000e+00 0.000000e+00
1
Step 492000
Ar -9.309215e-01 0.000000e+00 0.000000e+00
1
Step 493000
Ar -9.333634e-01 0.000000e+00 0.000000e+00
1
Step 494000
Ar -9.354421e-01 0.000000e+00 0.000000e+00
1
Step 495000
Ar -9.340136e-01 0.000000e+00 0.000000e+00
1
Step 496000
Ar -9.309823e-01 0.000000e+00 0.000000e+00
1
Step 497000
Ar -9.237940e-01 0.000000e+00 0.000000e+00
1
Step 498000
Ar -9.240736e-01 0.000000e+00 0.000000e+00
1
Step 499000
Ar -9.214399e-01 0.000000e+00 0.000000e+00
1
Step 500000
Ar -9.166187e-01 0.000000e+00 0.000000e+00
1
Step 501000
Ar -9.101466e-01 0.000000e+00 0.000000e+00
1
Step 502000
Ar -9.163499e-01 0.000000e+00 0.000000e+00
1
Step 503000
Ar -9.124544e-01 0.000000e+00 0.000000e+00
1
Step 504000
Ar -9.114418e-01 0.000000e+00 0.000000e+00
1
Step 505000
Ar -9.104439e-01 0.000000e+00 0.000000e+00
1
Step 506000
Ar -9.123793e-01 0.000000e+00 0.000000e+00
1
Step 507000
Ar -9.128504e-01 0.000000e+00 0.000000e+00
1
Step 508000
Ar -9.117173e-01 0.000000e+00 0.000000e+00
1
Step 509000
Ar -1.008893e+00 0.000000e+00 0.000000e+00
1
Step 510000
Ar -8.697710e-01 0.000000e+00 0.000000e+00
1
Step 511000
Ar -9.919009e-01 0.000000e+00 0.000000e+00
1
Step 512000
Ar -1.097392e+00 0.000000e+00 0.000000e+00
1
Step 513000
Ar -8.549073e-01 0.000000e+00 0.000000e+00
1
Step 514000
Ar -9.509285e-01 0.000000e+00 0.000000e+00
1
Step 515000
Ar -9.035408e-01 0.000000e+00 0.000000e+00
1
Step 516000
Ar -8.986191e-01 0.000000e+00 0.000000e+00
1
Step 517000
Ar -8.918080e-01 0.000000e+00 0.000000e+00
1
Step 518000
Ar -1.010888e+00 0.000000e+00 0.000000e+00
1
Step 519000
Ar -1.030150e+00 0.000000e+00 0.000000e+00
1
Step 520000
Ar -9.532933e-01 0.000000e+00 0.000000e+00
1
Step 521000
Ar -9.511612e-01 0.000000e+00 0.000000e+00
1
Step 522000
Ar -9.596955e-01 0.000000e+00 0.000000e+00
1
Step 523000
Ar -9.500590e-01 0.000000e+00 0.000000e+00
1
Step 524000
Ar -9.560001e-01 0.000000e+00 0.000000e+00
1
Step 525000
Ar -1.078443e+00 0.000000e+00 0.000000e+00
1
Step 526000
Ar -1.075457e+00 0.000000e+00 0.000000e+00
1
Step 527000
Ar -1.076603e+00 0.000000e+00 0.000000e+00
1
Step 528000
Ar -1.072629e+00 0.000000e+00 0.000000e+00
1
Step 529000
Ar -1.020117e+00 0.000000e+00 0.000000e+00
1
Step 530000
Ar -9.478427e-01 0.000000e+00 0.000000e+00
1
Step 531000
Ar -9.532809e-01 0.000000e+00 0.000000e+00
1
Step 532000
Ar -9.483249e-01 0.000000e+00 0.000000e+00
1
Step 533000
Ar -1.021973e+00 0.000000e+00 0.000000e+00
1
Step 534000
Ar -1.012104e+00 0.000000e+00 0.000000e+00
1
Step 535000
Ar -1.043379e+00 0.000000e+00 0.000000e+00
1
Step 536000
Ar -1.010486e+00 0.000000e+00 0.000000e+00
1
Step 537000
Ar -1.015147e+00 0.000000e+00 0.000000e+00
1
Step 538000
Ar -1.041609e+00 0.000000e+00 0.000000e+00
1
Step 539000
Ar -1.014713e+00 0.000000e+00 0.000000e+00
1
Step 540000
Ar -1.014317e+00 0.000000e+00 0.000000e+00
1
Step 541000
Ar -1.024797e+00 0.000000e+00 0.000000e+00
1
Step 542000
Ar -1.017013e+00 0.000000e+00 0.000000e+00
1
Step 543000
Ar -1.011877e+00 0.000000e+00 0.000000e+00
1
Step 544000
Ar -1.043417e+00 0.000000e+00 0.000000e+00
1
Step 545000
Ar -1.019964e+00 0.000000e+00 0.000000e+00
1
Step 546000
Ar -1.072570e+00 0.000000e+00 0.000000e+00
1
Step 547000
Ar -1.072851e+00 0.000000e+00 0.000000e+00
1
Step 548000
Ar -1.072890e+00 0.000000e+00 0.000000e+00
1
Step 549000
Ar -1.073574e+00 0.000000e+00 0.000000e+00
1
Step 550000
Ar -1.075873e+00 0.000000e+00 0.000000e+00
1
Step 551000
Ar -1.074856e+00 0.000000e+00 0.000000e+00
1
Step 552000
Ar -1.075898e+00 0.000000e+00 0.000000e+00
1
Step 553000
Ar -1.072154e+00 0.000000e+00 0.000000e+00
1
Step 554000
Ar -1.034235e+00 0.000000e+00 0.000000e+00
1
Step 555000
Ar -1.014356e+00 0.000000e+00 0.000000e+00
1
Step 556000
Ar -1.010326e+00 0.000000e+00 0.000000e+00
1
Step 557000
Ar -1.021141e+00 0.000000e+00 0.000000e+00
1
Step 558000
Ar -9.545898e-01 0.000000e+00 0.000000e+00
1
Step 559000
Ar -9.591499e-01 0.000000e+00 0.000000e+00
1
Step 560000
Ar -9.480064e-01 0.000000e+00 0.000000e+00
1
Step 561000
Ar -1.075096e+00 0.000000e+00 0.000000e+00
1
Step 562000
Ar -9.323387e-01 0.000000e+00 0.000000e+00
1
Step 563000
Ar -1.026294e+00 0.000000e+00 0.000000e+00
1
Step 564000
Ar -1.025223e+00 0.000000e+00 0.000000e+00
1
Step 565000
Ar -1.022150e+00 0.000000e+00 0.000000e+00
1
Step 566000
Ar -9.796747e-01 0.000000e+00 0.000000e+00
1
Step 567000
Ar -8.809256e-01 0.000000e+00 0.000000e+00
1
Step 568000
Ar -1.087520e+00 0.000000e+00 0.000000e+00
1
Step 569000
Ar -9.668716e-01 0.000000e+00 0.000000e+00
1
Step 570000
Ar -9.184118e-01 0.000000e+00 0.000000e+00
1
Step 571000
Ar -9.407566e-01 0.000000e+00 0.000000e+00
1
Step 572000
Ar -1.079257e+00 0.000000e+00 0.000000e+00
1
Step 573000
Ar -1.031305e+00 0.000000e+00 0.000000e+00
1
Step 574000
Ar -9.068515e-01 0.000000e+00 0.000000e+00
1
Step 575000
Ar -1.030284e+00 0.000000e+00 0.000000e+00
1
Step 576000
Ar -1.038770e+00 0.000000e+00 0.000000e+00
1
Step 577000
Ar -1.168385e+00 0.000000e+00 0.000000e+00
1
Step 578000
Ar -9.431868e-01 0.000000e+00 0.000000e+00
1
Step 579000
Ar -1.104190e+00 0.000000e+00 0.000000e+00
1
Step 580000
Ar -1.117791e+00 0.000000e+00 0.000000e+00
1
Step 581000
Ar -9.507643e-01 0.000000e+00 0.000000e+00
1
Step 582000
Ar -9.279163e-01 0.000000e+00 0.000000e+00
1
Step 583000
Ar -9.219812e-01 0.000000e+00 0.000000e+00
1
Step 584000
Ar -9.279606e-01 0.000000e+00 0.000000e+00
1
Step 585000
Ar -9.280475e-01 0.000000e+00 0.000000e+00
1
Step 586000
Ar -9.257227e-01 0.000000e+00 0.000000e+00
1
Step 587000
Ar -9.261568e-01 0.000000e+00 0.000000e+00
1
Step 588000
Ar -9.275388e-01 0.000000e+00 0.000000e+00
1
Step 589000
Ar -9.226170e-01 0.000000e+00 0.000000e+00
1
Step 590000
Ar -1.031078e+00 0.000000e+00 0.000000e+00
1
Step 591000
Ar -9.224675e-01 0.000000e+00 0.000000e+00
1
Step 592000
Ar -9.255485e-01 0.000000e+00 0.000000e+00
1
Step 593000
Ar -1.077042e+00 0.000000e+00 0.000000e+00
1
Step 594000
Ar -9.914700e-01 0.000000e+00 0.000000e+00
1
Step 595000
Ar -9.917157e-01 0.000000e+00 0.000000e+00
1
Step 596000
Ar -9.092879e-01 0.000000e+00 0.000000e+00
1
Step 597000
Ar -9.172442e-01 0.000000e+00 0.000000e+00
1
Step 598000
Ar -9.750050e-01 0.000000e+00 0.000000e+00
1
Step 599000
Ar -9.719742e-01 0.000000e+00 0.000000e+00
1
Step 600000
Ar -9.682972e-01 0.000000e+00 0.000000e+00
1
Step 601000
Ar -9.627180e-01 0.000000e+00 0.000000e+00
1
Step 602000
Ar -9.681129e-01 0.000000e+00 0.000000e+00
1
Step 603000
Ar -9.018575e-01 0.000000e+00 0.000000e+00
1
Step 604000
Ar -1.002299e+00 0.000000e+00 0.000000e+00
1
Step 605000
Ar -1.007419e+00 0.000000e+00 0.000000e+00
1
Step 606000
Ar -1.008520e+00 0.000000e+00 0.000000e+00
1
Step 607000
Ar -8.591582e-01 0.000000e+00 0.000000e+00
1
Step 608000
Ar -1.025374e+00 0.000000e+00 0.000000e+00
1
Step 609000
Ar -9.379380e-01 0.000000e+00 0.000000e+00
1
Step 610000
Ar -1.112418e+00 0.000000e+00 0.000000e+00
1
Step 611000
Ar -1.137908e+00 0.000000e+00 0.000000e+00
1
Step 612000
Ar -1.054938e+00 0.000000e+00 0.000000e+00
1
Step 613000
Ar -1.074908e+00 0.000000e+00 0.000000e+00
1
Step 614000
Ar -1.048847e+00 0.000000e+00 0.000000e+00
1
Step 615000
Ar -1.055437e+00 0.000000e+00 0.000000e+00
1
Step 616000
Ar -9.716167e-01 0.000000e+00 0.000000e+00
1
Step 617000
Ar -1.096230e+00 0.000000e+00 0.000000e+00
1
Step 618000
Ar -1.092893e+00 0.000000e+00 0.000000e+00
1
Step 619000
Ar -1.098423e+00 0.000000e+00 0.000000e+00
1
Step 620000
Ar -1.117016e+00 0.000000e+00 0.000000e+00
1
Step 621000
Ar -1.118770e+00 0.000000e+00 0.000000e+00
1
Step 622000
Ar -1.056133e+00 0.000000e+00 0.000000e+00
1
Step 623000
Ar -1.009017e+00 0.000000e+00 0.000000e+00
1
Step 624000
Ar -1.078790e+00 0.000000e+00 0.000000e+00
1
Step 625000
Ar -1.047128e+00 0.000000e+00 0.000000e+00
1
Step 626000
Ar -1.012380e+00 0.000000e+00 0.000000e+00
1
Step 627000
Ar -1.068603e+00 0.000000e+00 0.000000e+00
1
Step 628000
Ar -1.004155e+00 0.000000e+00 0.000000e+00
1
Step 629000
Ar -1.009239e+00 0.000000e+00 0.000000e+00
1
Step 630000
Ar -1.005627e+00 0.000000e+00 0.000000e+00
1
Step 631000
Ar -9.959501e-01 0.000000e+00 0.000000e+00
1
Step 632000
Ar -9.883267e-01 0.000000e+00 0.000000e+00
1
Step 633000
Ar -7.766245e-01 0.000000e+00 0.000000e+00
1
Step 634000
Ar -9.640351e-01 0.000000e+00 0.000000e+00
1
Step 635000
Ar -9.173891e-01 0.000000e+00 0.000000e+00
1
Step 636000
Ar -9.152726e-01 0.000000e+00 0.000000e+00
1
Step 637000
Ar -1.064314e+00 0.000000e+00 0.000000e+00
1
Step 638000
Ar -8.997389e-01 0.000000e+00 0.000000e+00
1
Step 639000
Ar -9.031261e-01 0.000000e+00 0.000000e+00
1
Step 640000
Ar -8.983059e-01 0.000000e+00 0.000000e+00
1
Step 641000
Ar -9.091662e-01 0.000000e+00 0.000000e+00
1
Step 642000
Ar -9.084449e-01 0.000000e+00 0.000000e+00
1
Step 643000
Ar -1.060841e+00 0.000000e+00 0.000000e+00
1
Step 644000
Ar -9.351451e-01 0.000000e+00 0.000000e+00
1
Step 645000
Ar -9.245408e-01 0.000000e+00 0.000000e+00
1
Step 646000
Ar -7.903625e-01 0.000000e+00 0.000000e+00
1
Step 647000
Ar -8.948058e-01 0.000000e+00 0.000000e+00
1
Step 648000
Ar -8.904377e-01 0.000000e+00 0.000000e+00
1
Step 649000
Ar -1.062939e+00 0.000000e+00 0.000000e+00
1
Step 650000
Ar -1.190662e+00 0.000000e+00 0.000000e+00
1
Step 651000
Ar -1.082666e+00 0.000000e+00 0.000000e+00
1