1
Step 120000
Ar 8.569697e-01 0.000000e+00 0.000000e+00
1
Step 121000
Ar 1.079283e+00 0.000000e+00 0.000000e+00
1
Step 122000
Ar 1.144276e+00 0.000000e+00 0.000000e+00
1
Step 123000
Ar 7.627226e-01 0.000000e+00 0.000000e+00
1
Step 124000
Ar 8.560335e-01 0.000000e+00 0.000000e+00
1
Step 125000
Ar 1.154156e+00 0.000000e+00 0.000000e+00
1
Step 126000
Ar 1.223177e+00 0.000000e+00 0.000000e+00
1
Step 127000
Ar 1.273839e+00 0.000000e+00 0.000000e+00
1
Step 128000
Ar 1.201622e+00 0.000000e+00 0.000000e+00
1
Step 129000
Ar 1.216075e+00 0.000000e+00 0.000000e+00
1
Step 130000
Ar 1.196176e+00 0.000000e+00 0.000000e+00
1
Step 131000
Ar 1.252023e+00 0.000000e+00 0.000000e+00
1
Step 132000
Ar 1.207688e+00 0.000000e+00 0.000000e+00
1
Step 133000
Ar 1.190878e+00 0.000000e+00 0.000000e+00
1
Step 134000
Ar 1.172846e+00 0.000000e+00 0.000000e+00
1
Step 135000
Ar 1.242324e+00 0.000000e+00 0.000000e+00
1
Step 136000
Ar 1.186458e+00 0.000000e+00 0.000000e+00
1
Step 137000
Ar 1.233804e+00 0.000000e+00 0.000000e+00
1
Step 138000
Ar 1.218082e+00 0.000000e+00 0.000000e+00
1
Step 139000
Ar 1.211245e+00 0.000000e+00 0.000000e+00
1
Step 140000
Ar 1.226764e+00 0.000000e+00 0.000000e+00
1
Step 141000
Ar 1.241342e+00 0.000000e+00 0.000000e+00
1
Step 142000
Ar 1.247627e+00 0.000000e+00 0.000000e+00
1
Step 143000
Ar 6.434986e-01 0.000000e+00 0.000000e+00
1
Step 144000
Ar 1.044714e+00 0.000000e+00 0.000000e+00
1
Step 145000
Ar 1.111922e+00 0.000000e+00 0.000000e+00
1
Step 146000
Ar 6.973711e-01 0.000000e+00 0.000000e+00
1
Step 147000
Ar 5.359644e-01 0.000000e+00 0.000000e+00
1
Step 148000
Ar 6.545829e-01 0.000000e+00 0.000000e+00
1
Step 149000
Ar 6.321702e-01 0.000000e+00 0.000000e+00
1
Step 150000
Ar 6.519919e-01 0.000000e+00 0.000000e+00
1
Step 151000
Ar 6.964766e-01 0.000000e+00 0.000000e+00
1
Step 152000
Ar 4.917865e-01 0.000000e+00 0.000000e+00
1
Step 153000
Ar -9.760843e-01 0.000000e+00 0.000000e+00
1
Step 154000
Ar -6.826965e-01 0.000000e+00 0.000000e+00
1
Step 155000
Ar -4.460538e-01 0.000000e+00 0.000000e+00
1
Step 156000
Ar -8.119131e-01 0.000000e+00 0.000000e+00
1
Step 157000
Ar -7.933714e-01 0.000000e+00 0.000000e+00
1
Step 158000
Ar -8.026699e-01 0.000000e+00 0.000000e+00
1
Step 159000
Ar -8.169126e-01 0.000000e+00 0.000000e+00
1
Step 160000
Ar -8.080044e-01 0.000000e+00 0.000000e+00
1
Step 161000
Ar -7.192637e-01 0.000000e+00 0.000000e+00
1
Step 162000
Ar -7.651384e-01 0.000000e+00 0.000000e+00
1
Step 163000
Ar -8.035865e-01 0.000000e+00 0.000000e+00
1
Step 164000
Ar -7.827775e-01 0.000000e+00 0.000000e+00
1
Step 165000
Ar -5.996757e-01 0.000000e+00 0.000000e+00
1
Step 166000
Ar -8.179266e-01 0.000000e+00 0.000000e+00
1
Step 167000
Ar -4.878142e-01 0.000000e+00 0.000000e+00
1
Step 168000
Ar -7.714575e-01 0.000000e+00 0.000000e+00
1
Step 169000
Ar -7.081626e-01 0.000000e+00 0.000000e+00
1
Step 170000
Ar -6.997630e-01 0.000000e+00 0.000000e+00
1
Step 171000
Ar -8.167682e-01 0.000000e+00 0.000000e+00
1
Step 172000
Ar -8.049051e-01 0.000000e+00 0.000000e+00
1
Step 173000
Ar -7.895136e-01 0.000000e+00 0.000000e+00
1
Step 174000
Ar -8.204531e-01 0.000000e+00 0.000000e+00
1
Step 175000
Ar -7.765814e-01 0.000000e+00 0.000000e+00
1
Step 176000
Ar -7.883331e-01 0.000000e+00 0.000000e+00
1
Step 177000
Ar -8.168185e-01 0.000000e+00 0.000000e+00
1
Step 178000
Ar -7.929246e-01 0.000000e+00 0.000000e+00
1
Step 179000
Ar -8.151902e-01 0.000000e+00 0.000000e+00
1
Step 180000
Ar -7.804262e-01 0.000000e+00 0.000000e+00
1
Step 181000
Ar -7.999407e-01 0.000000e+00 0.000000e+00
1
Step 182000
Ar -7.893981e-01 0.000000e+00 0.000000e+00
1
Step 183000
Ar -7.900323e-01 0.000000e+00 0.000000e+00
1
Step 184000
Ar -7.863153e-01 0.000000e+00 0.000000e+00
1
Step 185000
Ar -7.900384e-01 0.000000e+00 0.000000e+00
1
Step 186000
Ar -7.916612e-01 0.000000e+00 0.000000e+00
1
Step 187000
Ar -8.033538e-01 0.000000e+00 0.000000e+00
1
Step 188000
Ar -7.781774e-01 0.000000e+00 0.000000e+00
1
Step 189000
Ar -7.428721e-01 0.000000e+00 0.000000e+00
1
Step 190000
Ar -7.232681e-01 0.000000e+00 0.000000e+00
1
Step 191000
Ar -7.383759e-01 0.000000e+00 0.000000e+00
1
Step 192000
Ar -1.274775e+00 0.000000e+00 0.000000e+00
1
Step 193000
Ar -9.428373e-01 0.000000e+00 0.000000e+00
1
Step 194000
Ar -9.223944e-01 0.000000e+00 0.000000e+00
1
Step 195000
Ar -8.934537e-01 0.000000e+00 0.000000e+00
1
Step 196000
Ar -9.098587e-01 0.000000e+00 0.000000e+00
1
Step 197000
Ar -1.026588e+00 0.000000e+00 0.000000e+00
1
Step 198000
Ar -1.096814e+00 0.000000e+00 0.000000e+00
1
Step 199000
Ar -1.098435e+00 0.000000e+00 0.000000e+00
1
Step 200000
Ar -1.009037e+00 0.000000e+00 0.000000e+00
1
Step 201000
Ar -1.001311e+00 0.000000e+00 0.000000e+00
1
Step 202000
Ar -1.172783e+00 0.000000e+00 0.000000e+00
1
Step 203000
Ar -1.126805e+00 0.000000e+00 0.000000e+00
1
Step 204000
Ar -1.307985e+00 0.000000e+00 0.000000e+00
1
Step 205000
Ar -1.172312e+00 0.000000e+00 0.000000e+00
1
Step 206000
Ar -1.255903e+00 0.000000e+00 0.000000e+00
1
Step 207000
Ar -1.175465e+00 0.000000e+00 0.000000e+00
1
Step 208000
Ar -1.170579e+00 0.000000e+00 0.000000e+00
1
Step 209000
Ar -1.167639e+00 0.000000e+00 0.000000e+00
1
Step 210000
Ar -1.172631e+00 0.000000e+00 0.000000e+00
1
Step 211000
Ar -1.179913e+00 0.000000e+00 0.000000e+00
1
Step 212000
Ar -1.198915e+00 0.000000e+00 0.000000e+00
1
Step 213000
Ar -1.183859e+00 0.000000e+00 0.000000e+00
1
Step 214000
Ar -1.185731e+00 0.000000e+00 0.000000e+00
1
Step 215000
Ar -1.209628e+00 0.000000e+00 0.000000e+00
1
Step 216000
Ar -1.252473e+00 0.000000e+00 0.000000e+00
1
Step 217000
Ar -1.238034e+00 0.000000e+00 0.000000e+00
1
Step 218000
Ar -1.268987e+00 0.000000e+00 0.000000e+00
1
Step 219000
Ar -1.237659e+00 0.000000e+00 0.000000e+00
1
Step 220000
Ar -1.266911e+00 0.000000e+00 0.000000e+00
1
Step 221000
Ar -1.393222e+00 0.000000e+00 0.000000e+00
1
Step 222000
Ar -1.235104e+00 0.000000e+00 0.000000e+00
1
Step 223000
Ar -1.248151e+00 0.000000e+00 0.000000e+00
1
Step 224000
Ar -1.252842e+00 0.000000e+00 0.000000e+00
1
Step 225000
Ar 5.823115e-01 0.000000e+00 0.000000e+00
1
Step 226000
Ar 5.052529e-01 0.000000e+00 0.000000e+00
1
Step 227000
Ar 4.801926e-01 0.000000e+00 0.000000e+00
1
Step 228000
Ar 3.654256e-01 0.000000e+00 0.000000e+00
1
Step 229000
Ar 3.697578e-01 0.000000e+00 0.000000e+00
1
Step 230000
Ar 2.596505e-01 0.000000e+00 0.000000e+00
1
Step 231000
Ar 3.758778e-01 0.000000e+00 0.000000e+00
1
Step 232000
Ar 3.717272e-01 0.000000e+00 0.000000e+00
1
Step 233000
Ar 6.828086e-01 0.000000e+00 0.000000e+00
1
Step 234000
Ar 7.064774e-01 0.000000e+00 0.000000e+00
1
Step 235000
Ar 6.828626e-01 0.000000e+00 0.000000e+00
1
Step 236000
Ar 6.825790e-01 0.000000e+00 0.000000e+00
1
Step 237000
Ar 6.366300e-01 0.000000e+00 0.000000e+00
1
Step 238000
Ar 6.358969e-01 0.000000e+00 0.000000e+00
1
Step 239000
Ar 6.781714e-01 0.000000e+00 0.000000e+00
1
Step 240000
Ar 6.829803e-01 0.000000e+00 0.000000e+00
1
Step 241000
Ar 6.801900e-01 0.000000e+00 0.000000e+00
1
Step 242000
Ar 6.793983e-01 0.000000e+00 0.000000e+00
1
Step 243000
Ar 6.763657e-01 0.000000e+00 0.000000e+00
1
Step 244000
Ar 6.858218e-01 0.000000e+00 0.000000e+00
1
Step 245000
Ar 6.828066e-01 0.000000e+00 0.000000e+00
1
Step 246000
Ar 6.835919e-01 0.000000e+00 0.000000e+00
1
Step 247000
Ar 6.845088e-01 0.000000e+00 0.000000e+00
1
Step 248000
Ar 6.764563e-01 0.000000e+00 0.000000e+00
1
Step 249000
Ar 6.830984e-01 0.000000e+00 0.000000e+00
1
Step 250000
Ar 6.830602e-01 0.000000e+00 0.000000e+00
1
Step 251000
Ar 6.878887e-01 0.000000e+00 0.000000e+00
1
Step 252000
Ar 6.788863e-01 0.000000e+00 0.000000e+00
1
Step 253000
Ar 6.046081e-01 0.000000e+00 0.000000e+00
1
Step 254000
Ar 8.240826e-01 0.000000e+00 0.000000e+00
1
Step 255000
Ar 8.846701e-01 0.000000e+00 0.000000e+00
1
Step 256000
Ar 8.789110e-01 0.000000e+00 0.000000e+00
1
Step 257000
Ar 9.190621e-01 0.000000e+00 0.000000e+00
1
Step 258000
Ar 1.121436e+00 0.000000e+00 0.000000e+00
1
Step 259000
Ar 9.866207e-01 0.000000e+00 0.000000e+00
1
Step 260000
Ar 1.079129e+00 0.000000e+00 0.000000e+00
1
Step 261000
Ar 8.437830e-01 0.000000e+00 0.000000e+00
1
Step 262000
Ar 1.033986e+00 0.000000e+00 0.000000e+00
1
Step 263000
Ar 9.209498e-01 0.000000e+00 0.000000e+00
1
Step 264000
Ar 7.875016e-01 0.000000e+00 0.000000e+00
1
Step 265000
Ar 9.892585e-01 0.000000e+00 0.000000e+00
1
Step 266000
Ar 1.044619e+00 0.000000e+00 0.000000e+00
1
Step 267000
Ar 1.058991e+00 0.000000e+00 0.000000e+00
1
Step 268000
Ar 1.006140e+00 0.000000e+00 0.000000e+00
1
Step 269000
Ar 1.113313e+00 0.000000e+00 0.000000e+00
1
Step 270000
Ar 1.012083e+00 0.000000e+00 0.000000e+00
1
Step 271000
Ar 9.471885e-01 0.000000e+00 0.000000e+00
1
Step 272000
Ar 8.833178e-01 0.000000e+00 0.000000e+00
1
Step 273000
Ar 8.909916e-01 0.000000e+00 0.000000e+00
1
Step 274000
Ar 9.296954e-01 0.000000e+00 0.000000e+00
1
Step 275000
Ar 9.118718e-01 0.000000e+00 0.000000e+00
1
Step 276000
Ar 8.756349e-01 0.000000e+00 0.000000e+00
1
Step 277000
Ar 8.847702e-01 0.000000e+00 0.000000e+00
1
Step 278000
Ar 8.902082e-01 0.000000e+00 0.000000e+00
1
Step 279000
Ar 8.990741e-01 0.000000e+00 0.000000e+00
1
Step 280000
Ar 9.222400e-01 0.000000e+00 0.000000e+00
1
Step 281000
Ar 9.268192e-01 0.000000e+00 0.000000e+00
1
Step 282000
Ar 9.285758e-01 0.000000e+00 0.000000e+00
1
Step 283000
Ar 9.263908e-01 0.000000e+00 0.000000e+00
1
Step 284000
Ar 9.301281e-01 0.000000e+00 0.000000e+00
1
Step 285000
Ar 1.076823e+00 0.000000e+00 0.000000e+00
1
Step 286000
Ar 1.099182e+00 0.000000e+00 0.000000e+00
1
Step 287000
Ar 1.096326e+00 0.000000e+00 0.000000e+00
1
Step 288000
Ar 1.055520e+00 0.000000e+00 0.000000e+00
1
Step 289000
Ar 1.063265e+00 0.000000e+00 0.000000e+00
1
Step 290000
Ar 1.074169e+00 0.000000e+00 0.000000e+00
1
Step 291000
Ar 1.064834e+00 0.000000e+00 0.000000e+00
1
Step 292000
Ar 1.051517e+00 0.000000e+00 0.000000e+00
1
Step 293000
Ar 1.068031e+00 0.000000e+00 0.000000e+00
1
Step 294000
Ar 1.075260e+00 0.000000e+00 0.000000e+00
1
Step 295000
Ar 1.075068e+00 0.000000e+00 0.000000e+00
1
Step 296000
Ar 1.055398e+00 0.000000e+00 0.000000e+00
1
Step 297000
Ar 1.050635e+00 0.000000e+00 0.000000e+00
1
Step 298000
Ar 1.065438e+00 0.000000e+00 0.000000e+00
1
Step 299000
Ar 1.053713e+00 0.000000e+00 0.000000e+00
1
Step 300000
Ar 1.066340e+00 0.000000e+00 0.000000e+00
1
Step 301000
Ar 1.065262e+00 0.000000e+00 0.000000e+00
1
Step 302000
Ar 1.059741e+00 0.000000e+00 0.000000e+00
1
Step 303000
Ar 1.067050e+00 0.000000e+00 0.000000e+00
1
Step 304000
Ar 1.062927e+00 0.000000e+00 0.000000e+00
1
Step 305000
Ar 1.054639e+00 0.000000e+00 0.000000e+00
1
Step 306000
Ar 1.080792e+00 0.000000e+00 0.000000e+00
1
Step 307000
Ar 1.063281e+00 0.000000e+00 0.000000e+00
1
Step 308000
Ar 9.870553e-01 0.000000e+00 0.000000e+00
1
Step 309000
Ar 9.797062e-01 0.000000e+00 0.000000e+00
1
Step 310000
Ar 9.899258e-01 0.000000e+00 0.000000e+00
1
Step 311000
Ar 9.884483e-01 0.000000e+00 0.000000e+00
1
Step 312000
Ar 9.906804e-01 0.000000e+00 0.000000e+00
1
Step 313000
Ar 1.022021e+00 0.000000e+00 0.000000e+00
1
Step 314000
Ar 9.852386e-01 0.000000e+00 0.000000e+00
1
Step 315000
Ar 1.016994e+00 0.000000e+00 0.000000e+00
1
Step 316000
Ar 1.066782e+00 0.000000e+00 0.000000e+00
1
Step 317000
Ar 1.075054e+00 0.000000e+00 0.000000e+00
1
Step 318000
Ar 1.073918e+00 0.000000e+00 0.000000e+00
1
Step 319000
Ar 1.078771e+00 0.000000e+00 0.000000e+00
1
Step 320000
Ar 1.075892e+00 0.000000e+00 0.000000e+00
1
Step 321000
Ar 1.067339e+00 0.000000e+00 0.000000e+00
1
Step 322000
Ar 1.074718e+00 0.000000e+00 0.000000e+00
1
Step 323000
Ar 1.078344e+00 0.000000e+00 0.000000e+00
1
Step 324000
Ar 1.066496e+00 0.000000e+00 0.000000e+00
1
Step 325000
Ar 1.107435e+00 0.000000e+00 0.000000e+00
1
Step 326000
Ar 1.115714e+00 0.000000e+00 0.000000e+00
1
Step 327000
Ar 1.129630e+00 0.000000e+00 0.000000e+00
1
Step 328000
Ar 1.081731e+00 0.000000e+00 0.000000e+00
1
Step 329000
Ar 7.753510e-01 0.000000e+00 0.000000e+00
1
Step 330000
Ar 7.350090e-01 0.000000e+00 0.000000e+00
1
Step 331000
Ar 7.384743e-01 0.000000e+00 0.000000e+00
1
Step 332000
Ar 7.345061e-01 0.000000e+00 0.000000e+00
1
Step 333000
Ar 7.342082e-01 0.000000e+00 0.000000e+00
1
Step 334000
Ar 7.327583e-01 0.000000e+00 0.000000e+00
1
Step 335000
Ar 7.361255e-01 0.000000e+00 0.000000e+00
1
Step 336000
Ar 7.363415e-01 0.000000e+00 0.000000e+00
1
Step 337000
Ar 7.357563e-01 0.000000e+00 0.000000e+00
1
Step 338000
Ar 7.597273e-01 0.000000e+00 0.000000e+00
1
Step 339000
Ar 7.629443e-01 0.000000e+00 0.000000e+00
1
Step 340000
Ar 7.633000e-01 0.000000e+00 0.000000e+00
1
Step 341000
Ar 7.595606e-01 0.000000e+00 0.000000e+00
1
Step 342000
Ar 8.051010e-01 0.000000e+00 0.000000e+00
1
Step 343000
Ar 5.598076e-01 0.000000e+00 0.000000e+00
1
Step 344000
Ar 5.310798e-01 0.000000e+00 0.000000e+00
1
Step 345000
Ar 5.733819e-01 0.000000e+00 0.000000e+00
1
Step 346000
Ar 5.273587e-01 0.000000e+00 0.000000e+00
1
Step 347000
Ar 5.374188e-01 0.000000e+00 0.000000e+00
1
Step 348000
Ar 5.748691e-01 0.000000e+00 0.000000e+00
1
Step 349000
Ar 5.482794e-01 0.000000e+00 0.000000e+00
1
Step 350000
Ar 5.786531e-01 0.000000e+00 0.000000e+00
1
Step 351000
Ar 5.464259e-01 0.000000e+00 0.000000e+00
1
Step 352000
Ar 5.552629e-01 0.000000e+00 0.000000e+00
1
Step 353000
Ar 5.633649e-01 0.000000e+00 0.000000e+00
1
Step 354000
Ar 6.308614e-01 0.000000e+00 0.000000e+00
1
Step 355000
Ar 6.289851e-01 0.000000e+00 0.000000e+00
1
Step 356000
Ar 6.101062e-01 0.000000e+00 0.000000e+00
1
Step 357000
Ar 6.071788e-01 0.000000e+00 0.000000e+00
1
Step 358000
Ar 6.007092e-01 0.000000e+00 0.000000e+00
1
Step 359000
Ar 6.002806e-01 0.000000e+00 0.000000e+00
1
Step 360000
Ar 8.377579e-01 0.000000e+00 0.000000e+00
1
Step 361000
Ar 8.194996e-01 0.000000e+00 0.000000e+00
1
Step 362000
Ar 8.260977e-01 0.000000e+00 0.000000e+00
1
Step 363000
Ar 8.344857e-01 0.000000e+00 0.000000e+00
1
Step 364000
Ar 8.283926e-01 0.000000e+00 0.000000e+00
1
Step 365000
Ar 8.308107e-01 0.000000e+00 0.000000e+00
1
Step 366000
Ar 8.331949e-01 0.000000e+00 0.000000e+00
1
Step 367000
Ar 8.313680e-01 0.000000e+00 0.000000e+00
1
Step 368000
Ar 1.116607e+00 0.000000e+00 0.000000e+00
1
Step 369000
Ar 1.137932e+00 0.000000e+00 0.000000e+00
1
Step 370000
Ar 1.142325e+00 0.000000e+00 0.000000e+00
1
Step 371000
Ar 1.137263e+00 0.000000e+00 0.000000e+00
1
Step 372000
Ar 1.142817e+00 0.000000e+00 0.000000e+00
1
Step 373000
Ar 1.135610e+00 0.000000e+00 0.000000e+00
1
Step 374000
Ar 1.139849e+00 0.000000e+00 0.000000e+00
1
Step 375000
Ar 1.136445e+00 0.000000e+00 0.000000e+00
1
Step 376000
Ar 1.141753e+00 0.000000e+00 0.000000e+00
1
Step 377000
Ar 1.139159e+00 0.000000e+00 0.000000e+00
1
Step 378000
Ar 1.141061e+00 0.000000e+00 0.000000e+00
1
Step 379000
Ar 1.142436e+00 0.000000e+00 0.000000e+00
1
Step 380000
Ar 1.142340e+00 0.000000e+00 0.000000e+00
1
Step 381000
Ar 1.138183e+00 0.000000e+00 0.000000e+00
1
Step 382000
Ar 1.143599e+00 0.000000e+00 0.000000e+00
1
Step 383000
Ar 1.136401e+00 0.000000e+00 0.000000e+00
1
Step 384000
Ar 1.143022e+00 0.000000e+00 0.000000e+00
1
Step 385000
Ar 1.112983e+00 0.000000e+00 0.000000e+00
1
Step 386000
Ar 1.112516e+00 0.000000e+00 0.000000e+00
1
Step 387000
Ar 1.113379e+00 0.000000e+00 0.000000e+00
1
Step 388000
Ar 1.180279e+00 0.000000e+00 0.000000e+00
1
Step 389000
Ar 1.172986e+00 0.000000e+00 0.000000e+00
1
Step 390000
Ar 1.178168e+00 0.000000e+00 0.000000e+00
1
Step 391000
Ar 1.172542e+00 0.000000e+00 0.000000e+00
1
Step 392000
Ar 1.181528e+00 0.000000e+00 0.000000e+00
1
Step 393000
Ar 1.174755e+00 0.000000e+00 0.000000e+00
1
Step 394000
Ar 1.186324e+00 0.000000e+00 0.000000e+00
1
Step 395000
Ar 1.186186e+00 0.000000e+00 0.000000e+00
1
Step 396000
Ar 1.188939e+00 0.000000e+00 0.000000e+00
1
Step 397000
Ar 1.184575e+00 0.000000e+00 0.000000e+00
1
Step 398000
Ar 9.827422e-01 0.000000e+00 0.000000e+00
1
Step 399000
Ar 9.866004e-01 0.000000e+00 0.000000e+00
1
Step 400000
Ar 9.786655e-01 0.000000e+00 0.000000e+00
1
Step 401000
Ar 9.802532e-01 0.000000e+00 0.000000e+00
1
Step 402000
Ar 9.791763e-01 0.000000e+00 0.000000e+00
1
Step 403000
Ar 9.799033e-01 0.000000e+00 0.000000e+00
1
Step 404000
Ar 9.782156e-01 0.000000e+00 0.000000e+00
1
Step 405000
Ar 9.780337e-01 0.000000e+00 0.000000e+00
1
Step 406000
Ar 9.787596e-01 0.000000e+00 0.000000e+00
1
Step 407000
Ar 9.759505e-01 0.000000e+00 0.000000e+00
1
Step 408000
Ar 9.786025e-01 0.000000e+00 0.000000e+00
1
Step 409000
Ar 9.745401e-01 0.000000e+00 0.000000e+00
1
Step 410000
Ar 9.774538e-01 0.000000e+00 0.000000e+00
1
Step 411000
Ar 9.743060e-01 0.000000e+00 0.000000e+00
1
Step 412000
Ar 9.781088e-01 0.000000e+00 0.000000e+00
1
Step 413000
Ar 9.822686e-01 0.000000e+00 0.000000e+00
1
Step 414000
Ar 9.778523e-01 0.000000e+00 0.000000e+00
1
Step 415000
Ar 9.790728e-01 0.000000e+00 0.000000e+00
1
Step 416000
Ar 9.771976e-01 0.000000e+00 0.000000e+00
1
Step 417000
Ar 7.116369e-01 0.000000e+00 0.000000e+00
1
Step 418000
Ar 7.124265e-01 0.000000e+00 0.000000e+00
1
Step 419000
Ar 7.107922e-01 0.000000e+00 0.000000e+00
1
Step 420000
Ar 7.134550e-01 0.000000e+00 0.000000e+00
1
Step 421000
Ar 7.105900e-01 0.000000e+00 0.000000e+00
1
Step 422000
Ar 7.120147e-01 0.000000e+00 0.000000e+00
1
Step 423000
Ar 7.151458e-01 0.000000e+00 0.000000e+00
1
Step 424000
Ar 9.549119e-01 0.000000e+00 0.000000e+00
1
Step 425000
Ar 9.546523e-01 0.000000e+00 0.000000e+00
1
Step 426000
Ar 9.547876e-01 0.000000e+00 0.000000e+00
1
Step 427000
Ar 7.936174e-01 0.000000e+00 0.000000e+00
1
Step 428000
Ar 7.934959e-01 0.000000e+00 0.000000e+00
1
Step 429000
Ar 7.937742e-01 0.000000e+00 0.000000e+00
1
Step 430000
Ar 7.899925e-01 0.000000e+00 0.000000e+00
1
Step 431000
Ar 7.933546e-01 0.000000e+00 0.000000e+00
1
Step 432000
Ar 7.860660e-01 0.000000e+00 0.000000e+00
1
Step 433000
Ar 7.940694e-01 0.000000e+00 0.000000e+00
1
Step 434000
Ar 7.867224e-01 0.000000e+00 0.000000e+00
1
Step 435000
Ar 7.838456e-01 0.000000e+00 0.000000e+00
1
Step 436000
Ar 6.808467e-01 0.000000e+00 0.000000e+00
1
Step 437000
Ar 1.300272e+00 0.000000e+00 0.000000e+00
1
Step 438000
Ar 1.381198e+00 0.000000e+00 0.000000e+00
1
Step 439000
Ar 1.307353e+00 0.000000e+00 0.000000e+00
1
Step 440000
Ar 1.303810e+00 0.000000e+00 0.000000e+00
1
Step 441000
Ar 1.307018e+00 0.000000e+00 0.000000e+00
1
Step 442000
Ar 1.304271e+00 0.000000e+00 0.000000e+00
1
Step 443000
Ar 1.294721e+00 0.000000e+00 0.000000e+00
1
Step 444000
Ar 1.311034e+00 0.000000e+00 0.000000e+00
1
Step 445000
Ar 1.344886e+00 0.000000e+00 0.000000e+00
1
Step 446000
Ar 1.335670e+00 0.000000e+00 0.000000e+00
1
Step 447000
Ar 1.352709e+00 0.000000e+00 0.000000e+00
1
Step 448000
Ar 1.369874e+00 0.000000e+00 0.000000e+00
1
Step 449000
Ar 1.370437e+00 0.000000e+00 0.000000e+00
1
Step 450000
Ar 1.354185e+00 0.000000e+00 0.000000e+00
1
Step 451000
Ar 1.353042e+00 0.000000e+00 0.000000e+00
1
Step 452000
Ar 1.354571e+00 0.000000e+00 0.000000e+00
1
Step 453000
Ar 1.301664e+00 0.000000e+00 0.000000e+00
1
Step 454000
Ar 1.297396e+00 0.000000e+00 0.000000e+00
1
Step 455000
Ar 1.231147e+00 0.000000e+00 0.000000e+00
1
Step 456000
Ar 1.254624e+00 0.000000e+00 0.000000e+00
1
Step 457000
Ar 1.228047e+00 0.000000e+00 0.000000e+00
1
Step 458000
Ar 1.227035e+00 0.000000e+00 0.000000e+00
1
Step 459000
Ar 1.267506e+00 0.000000e+00 0.000000e+00
1
Step 460000
Ar 1.274059e+00 0.000000e+00 0.000000e+00
1
Step 461000
Ar 1.140887e+00 0.000000e+00 0.000000e+00
1
Step 462000
Ar 1.043993e+00 0.000000e+00 0.000000e+00
1
Step 463000
Ar 1.015002e+00 0.000000e+00 0.000000e+00
1
Step 464000
Ar 1.022750e+00 0.000000e+00 0.000000e+00
1
Step 465000
Ar 1.016101e+00 0.000000e+00 0.000000e+00
1
Step 466000
Ar 1.060731e+00 0.000000e+00 0.000000e+00
1
Step 467000
Ar 1.009183e+00 0.000000e+00 0.000000e+00
1
Step 468000
Ar 1.027789e+00 0.000000e+00 0.000000e+00
1
Step 469000
Ar 1.029992e+00 0.000000e+00 0.000000e+00
1
Step 470000
Ar 4.656194e-01 0.000000e+00 0.000000e+00
1
Step 471000
Ar 4.403927e-01 0.000000e+00 0.000000e+00
1
Step 472000
Ar 4.965542e-01 0.000000e+00 0.000000e+00
1
Step 473000
Ar 4.871671e-01 0.000000e+00 0.000000e+00
1
Step 474000
Ar 4.624160e-01 0.000000e+00 0.000000e+00
1
Step 475000
Ar 4.585511e-01 0.000000e+00 0.000000e+00
1
Step 476000
Ar 4.700535e-01 0.000000e+00 0.000000e+00
1
Step 477000
Ar 4.694401e-01 0.000000e+00 0.000000e+00
1
Step 478000
Ar 4.324437e-01 0.000000e+00 0.000000e+00
1
Step 479000
Ar 4.383349e-01 0.000000e+00 0.000000e+00
1
Step 480000
Ar 4.314379e-01 0.000000e+00 0.000000e+00
1
Step 481000
Ar 4.368062e-01 0.000000e+00 0.000000e+00
1
Step 482000
Ar 4.294996e-01 0.000000e+00 0.000000e+00
1
Step 483000
Ar 4.438387e-01 0.000000e+00 0.000000e+00
1
Step 484000
Ar 6.301942e-01 0.000000e+00 0.000000e+00
1
Step 485000
Ar 6.334134e-01 0.000000e+00 0.000000e+00
1
Step 486000
Ar 6.323803e-01 0.000000e+00 0.000000e+00
1
Step 487000
Ar 6.289123e-01 0.000000e+00 0.000000e+00
1
Step 488000
Ar 6.290628e-01 0.000000e+00 0.000000e+00
1
Step 489000
Ar 6.344526e-01 0.000000e+00 0.000000e+00
1
Step 490000
Ar 6.339089e-01 0.000000e+00 0.000000e+00
1
Step 491000
Ar 6.356911e-01 0.000000e+00 0.000000e+00
1
Step 492000
Ar 6.356437e-01 0.000000e+00 0.000000e+00
1
Step 493000
Ar 6.352286e-01 0.000000e+00 0.000000e+00
1
Step 494000
Ar 6.343344e-01 0.000000e+00 0.000000e+00
1
Step 495000
Ar 6.292075e-01 0.000000e+00 0.000000e+00
1
Step 496000
Ar 6.334937e-01 0.000000e+00 0.000000e+00
1
Step 497000
Ar 8.888718e-01 0.000000e+00 0.000000e+00
1
Step 498000
Ar -5.207048e-01 0.000000e+00 0.000000e+00
1
Step 499000
Ar -6.729519e-01 0.000000e+00 0.000000e+00
1
Step 500000
Ar -6.882187e-01 0.000000e+00 0.000000e+00
1
Step 501000
Ar -6.650876e-01 0.000000e+00 0.000000e+00
1
Step 502000
Ar -6.462505e-01 0.000000e+00 0.000000e+00
1
Step 503000
Ar -6.877521e-01 0.000000e+00 0.000000e+00
1
Step 504000
Ar -6.434271e-01 0.000000e+00 0.000000e+00
1
Step 505000
Ar -6.754269e-01 0.000000e+00 0.000000e+00
1
Step 506000
Ar -6.874893e-01 0.000000e+00 0.000000e+00
1
Step 507000
Ar -3.783939e-01 0.000000e+00 0.000000e+00
1
Step 508000
Ar -5.204608e-01 0.000000e+00 0.000000e+00
1
Step 509000
Ar -5.336605e-01 0.000000e+00 0.000000e+00
1
Step 510000
Ar -4.946874e-01 0.000000e+00 0.000000e+00
1
Step 511000
Ar -4.889407e-01 0.000000e+00 0.000000e+00
1
Step 512000
Ar -5.903456e-01 0.000000e+00 0.000000e+00
1
Step 513000
Ar -5.824016e-01 0.000000e+00 0.000000e+00
1
Step 514000
Ar -5.617537e-01 0.000000e+00 0.000000e+00
1
Step 515000
Ar 2.820465e-01 0.000000e+00 0.000000e+00
1
Step 516000
Ar -3.664705e-01 0.000000e+00 0.000000e+00
1
Step 517000
Ar -5.784139e-01 0.000000e+00 0.000000e+00
1
Step 518000
Ar -5.419921e-01 0.000000e+00 0.000000e+00
1
Step 519000
Ar -5.627789e-01 0.000000e+00 0.000000e+00
1
Step 520000
Ar -5.377294e-01 0.000000e+00 0.000000e+00
1
Step 521000
Ar -5.930150e-01 0.000000e+00 0.000000e+00
1
Step 522000
Ar -5.973679e-01 0.000000e+00 0.000000e+00
1
Step 523000
Ar -5.924698e-01 0.000000e+00 0.000000e+00
1
Step 524000
Ar -5.976257e-01 0.000000e+00 0.000000e+00
1
Step 525000
Ar -5.963611e-01 0.000000e+00 0.000000e+00
1
Step 526000
Ar -5.913740e-01 0.000000e+00 0.000000e+00
1
Step 527000
Ar -5.899701e-01 0.000000e+00 0.000000e+00
1
Step 528000
Ar -5.974806e-01 0.000000e+00 0.000000e+00
1
Step 529000
Ar -5.952338e-01 0.000000e+00 0.000000e+00
1
Step 530000
Ar -6.063952e-01 0.000000e+00 0.000000e+00
1
Step 531000
Ar -6.048624e-01 0.000000e+00 0.000000e+00
1
Step 532000
Ar -1.115075e+00 0.000000e+00 0.000000e+00
1
Step 533000
Ar -1.130695e+00 0.000000e+00 0.000000e+00
1
Step 534000
Ar -1.102419e+00 0.000000e+00 0.000000e+00
1
Step 535000
Ar -1.104396e+00 0.000000e+00 0.000000e+00
1
Step 536000
Ar -1.128408e+00 0.000000e+00 0.000000e+00
1
Step 537000
Ar -1.104984e+00 0.000000e+00 0.000000e+00
1
Step 538000
Ar -1.122069e+00 0.000000e+00 0.000000e+00
1
Step 539000
Ar -1.113592e+00 0.000000e+00 0.000000e+00
1
Step 540000
Ar -1.100031e+00 0.000000e+00 0.000000e+00
1
Step 541000
Ar -1.133816e+00 0.000000e+00 0.000000e+00
1
Step 542000
Ar -1.159549e+00 0.000000e+00 0.000000e+00
1
Step 543000
Ar -1.287171e+00 0.000000e+00 0.000000e+00
1
Step 544000
Ar -1.299346e+00 0.000000e+00 0.000000e+00
1
Step 545000
Ar -1.286338e+00 0.000000e+00 0.000000e+00
1
Step 546000
Ar -1.296110e+00 0.000000e+00 0.000000e+00
1
Step 547000
Ar -1.330415e+00 0.000000e+00 0.000000e+00
1
Step 548000
Ar -1.368506e+00 0.000000e+00 0.000000e+00
1
Step 549000
Ar -1.486799e+00 0.000000e+00 0.000000e+00
1
Step 550000
Ar -1.387022e+00 0.000000e+00 0.000000e+00
1
Step 551000
Ar -1.430995e+00 0.000000e+00 0.000000e+00
1
Step 552000
Ar -1.439594e+00 0.000000e+00 0.000000e+00
1
Step 553000
Ar -1.431770e+00 0.000000e+00 0.000000e+00
1
Step 554000
Ar -1.446803e+00 0.000000e+00 0.000000e+00
1
Step 555000
Ar -1.453607e+00 0.000000e+00 0.000000e+00
1
Step 556000
Ar -1.448059e+00 0.000000e+00 0.000000e+00
1
Step 557000
Ar -1.455405e+00 0.000000e+00 0.000000e+00
1
Step 558000
Ar -1.459174e+00 0.000000e+00 0.000000e+00
1
Step 559000
Ar -9.150375e-01 0.000000e+00 0.000000e+00
1
Step 560000
Ar -9.200801e-01 0.000000e+00 0.000000e+00
1
Step 561000
Ar -9.226639e-01 0.000000e+00 0.000000e+00
1
Step 562000
Ar -9.133601e-01 0.000000e+00 0.000000e+00
1
Step 563000
Ar -9.240987e-01 0.000000e+00 0.000000e+00
1
Step 564000
Ar -9.152886e-01 0.000000e+00 0.000000e+00
1
Step 565000
Ar -9.991837e-01 0.000000e+00 0.000000e+00
1
Step 566000
Ar -1.006434e+00 0.000000e+00 0.000000e+00
1
Step 567000
Ar -1.002396e+00 0.000000e+00 0.000000e+00
1
Step 568000
Ar -1.024003e+00 0.000000e+00 0.000000e+00
1
Step 569000
Ar -1.005428e+00 0.000000e+00 0.000000e+00
1
Step 570000
Ar -1.019941e+00 0.000000e+00 0.000000e+00
1
Step 571000
Ar -1.015992e+00 0.000000e+00 0.000000e+00
1
Step 572000
Ar -1.008524e+00 0.000000e+00 0.000000e+00
1
Step 573000
Ar -1.013111e+00 0.000000e+00 0.000000e+00
1
Step 574000
Ar -1.002651e+00 0.000000e+00 0.000000e+00
1
Step 575000
Ar -1.017074e+00 0.000000e+00 0.000000e+00
1
Step 576000
Ar -1.024680e+00 0.000000e+00 0.000000e+00
1
Step 577000
Ar -1.026862e+00 0.000000e+00 0.000000e+00
1
Step 578000
Ar -1.018467e+00 0.000000e+00 0.000000e+00
1
Step 579000
Ar -1.026225e+00 0.000000e+00 0.000000e+00
1
Step 580000
Ar -1.017541e+00 0.000000e+00 0.000000e+00
1
Step 581000
Ar -1.018952e+00 0.000000e+00 0.000000e+00
1
Step 582000
Ar -1.017725e+00 0.000000e+00 0.000000e+00
1
Step 583000
Ar -1.023090e+00 0.000000e+00 0.000000e+00
1
Step 584000
Ar -1.027806e+00 0.000000e+00 0.000000e+00
1
Step 585000
Ar -1.024901e+00 0.000000e+00 0.000000e+00
1
Step 586000
Ar -1.023019e+00 0.000000e+00 0.000000e+00
1
Step 587000
Ar -8.646819e-01 0.000000e+00 0.000000e+00
1
Step 588000
Ar -8.524318e-01 0.000000e+00 0.000000e+00
1
Step 589000
Ar -8.602091e-01 0.000000e+00 0.000000e+00
1
Step 590000
Ar -8.611934e-01 0.000000e+00 0.000000e+00
1
Step 591000
Ar -8.474765e-01 0.000000e+00 0.000000e+00
1
Step 592000
Ar -8.485124e-01 0.000000e+00 0.000000e+00
1
Step 593000
Ar -1.049175e+00 0.000000e+00 0.000000e+00
1
Step 594000
Ar -1.073434e+00 0.000000e+00 0.000000e+00
1
Step 595000
Ar -1.050293e+00 0.000000e+00 0.000000e+00
1
Step 596000
Ar -1.058393e+00 0.000000e+00 0.000000e+00
1
Step 597000
Ar -1.053940e+00 0.000000e+00 0.000000e+00
1
Step 598000
Ar -1.057982e+00 0.000000e+00 0.000000e+00
1
Step 599000
Ar -1.054758e+00 0.000000e+00 0.000000e+00
1
Step 600000
Ar -1.047194e+00 0.000000e+00 0.000000e+00
1
Step 601000
Ar -1.056175e+00 0.000000e+00 0.000000e+00
1
Step 602000
Ar -1.053801e+00 0.000000e+00 0.000000e+00
1
Step 603000
Ar -1.048785e+00 0.000000e+00 0.000000e+00
1
Step 604000
Ar -1.049456e+00 0.000000e+00 0.000000e+00
1
Step 605000
Ar -1.052769e+00 0.000000e+00 0.000000e+00
1
Step 606000
Ar -1.053109e+00 0.000000e+00 0.000000e+00
1
Step 607000
Ar -1.048822e+00 0.000000e+00 0.000000e+00
1
Step 608000
Ar -1.048039e+00 0.000000e+00 0.000000e+00
1
Step 609000
Ar -1.075284e+00 0.000000e+00 0.000000e+00
1
Step 610000
Ar -1.296446e+00 0.000000e+00 0.000000e+00
1
Step 611000
Ar -1.289599e+00 0.000000e+00 0.000000e+00
1
Step 612000
Ar -1.237270e+00 0.000000e+00 0.000000e+00
1
Step 613000
Ar -1.249489e+00 0.000000e+00 0.000000e+00
1
Step 614000
Ar -1.244568e+00 0.000000e+00 0.000000e+00
1
Step 615000
Ar -1.238108e+00 0.000000e+00 0.000000e+00
1
Step 616000
Ar -1.253014e+00 0.000000e+00 0.000000e+00
1
Step 617000
Ar -1.252548e+00 0.000000e+00 0.000000e+00
1
Step 618000
Ar -1.244082e+00 0.000000e+00 0.000000e+00
1
Step 619000
Ar -1.243840e+00 0.000000e+00 0.000000e+00
1
Step 620000
Ar -1.251177e+00 0.000000e+00 0.000000e+00
1
Step 621000
Ar -1.244808e+00 0.000000e+00 0.000000e+00
1
Step 622000
Ar -1.244808e+00 0.000000e+00 0.000000e+00
1
Step 623000
Ar -1.246076e+00 0.000000e+00 0.000000e+00
1
Step 624000
Ar -1.239926e+00 0.000000e+00 0.000000e+00
1
Step 625000
Ar -1.251962e+00 0.000000e+00 0.000000e+00
1
Step 626000
Ar -1.252974e+00 0.000000e+00 0.000000e+00
1
Step 627000
Ar -1.246990e+00 0.000000e+00 0.000000e+00
1
Step 628000
Ar -1.243102e+00 0.000000e+00 0.000000e+00
1
Step 629000
Ar -1.242704e+00 0.000000e+00 0.000000e+00
1
Step 630000
Ar -1.244546e+00 0.000000e+00 0.000000e+00
1
Step 631000
Ar -1.245954e+00 0.000000e+00 0.000000e+00
1
Step 632000
Ar -1.241488e+00 0.000000e+00 0.000000e+00
1
Step 633000
Ar -1.241411e+00 0.000000e+00 0.000000e+00
1
Step 634000
Ar 2.417544e-01 0.000000e+00 0.000000e+00
1
Step 635000
Ar 1.636283e-01 0.000000e+00 0.000000e+00
1
Step 636000
Ar 2.748723e-01 0.000000e+00 0.000000e+00
1
Step 637000
Ar 3.226544e-01 0.000000e+00 0.000000e+00
1
Step 638000
Ar 2.812177e-01 0.000000e+00 0.000000e+00
1
Step 639000
Ar 2.795693e-01 0.000000e+00 0.000000e+00
1
Step 640000
Ar 2.826089e-01 0.000000e+00 0.000000e+00
1
Step 641000
Ar 2.930110e-01 0.000000e+00 0.000000e+00
1
Step 642000
Ar 2.887166e-01 0.000000e+00 0.000000e+00
1
Step 643000
Ar 2.790792e-01 0.000000e+00 0.000000e+00
1
Step 644000
Ar 2.932522e-01 0.000000e+00 0.000000e+00
1
Step 645000
Ar 3.040243e-01 0.000000e+00 0.000000e+00
1
Step 646000
Ar 3.186374e-01 0.000000e+00 0.000000e+00
1
Step 647000
Ar 3.023272e-01 0.000000e+00 0.000000e+00
1
Step 648000
Ar 2.739098e-01 0.000000e+00 0.000000e+00
1
Step 649000
Ar 3.057119e-01 0.000000e+00 0.000000e+00
1
Step 650000
Ar 2.978892e-01 0.000000e+00 0.000000e+00
1
Step 651000
Ar 2.789069e-01 0.000000e+00 0.000000e+00