1
Step 120000
Ar 9.637966e-03 0.000000e+00 0.000000e+00
1
Step 121000
Ar -4.342246e-02 0.000000e+00 0.000000e+00
1
Step 122000
Ar 2.163304e-02 0.000000e+00 0.000000e+00
1
Step 123000
Ar -2.082017e-02 0.000000e+00 0.000000e+00
1
Step 124000
Ar 1.552005e-02 0.000000e+00 0.000000e+00
1
Step 125000
Ar -2.459588e-02 0.000000e+00 0.000000e+00
1
Step 126000
Ar -1.725249e-02 0.000000e+00 0.000000e+00
1
Step 127000
Ar 6.838513e-03 0.000000e+00 0.000000e+00
1
Step 128000
Ar -7.075941e-02 0.000000e+00 0.000000e+00
1
Step 129000
Ar -3.076991e-02 0.000000e+00 0.000000e+00
1
Step 130000
Ar -1.265309e-02 0.000000e+00 0.000000e+00
1
Step 131000
Ar 5.264354e-02 0.000000e+00 0.000000e+00
1
Step 132000
Ar 3.891921e-02 0.000000e+00 0.000000e+00
1
Step 133000
Ar 7.445552e-02 0.000000e+00 0.000000e+00
1
Step 134000
Ar -3.368662e-03 0.000000e+00 0.000000e+00
1
Step 135000
Ar 8.353477e-03 0.000000e+00 0.000000e+00
1
Step 136000
Ar 5.923318e-02 0.000000e+00 0.000000e+00
1
Step 137000
Ar 2.779393e-02 0.000000e+00 0.000000e+00
1
Step 138000
Ar 2.586202e-02 0.000000e+00 0.000000e+00
1
Step 139000
Ar 1.988379e-02 0.000000e+00 0.000000e+00
1
Step 140000
Ar 4.658499e-03 0.000000e+00 0.000000e+00
1
Step 141000
Ar 2.458364e-02 0.000000e+00 0.000000e+00
1
Step 142000
Ar -5.102969e-02 0.000000e+00 0.000000e+00
1
Step 143000
Ar 2.964552e-02 0.000000e+00 0.000000e+00
1
Step 144000
Ar 3.972083e-02 0.000000e+00 0.000000e+00
1
Step 145000
Ar -1.312508e-02 0.000000e+00 0.000000e+00
1
Step 146000
Ar -2.339400e-02 0.000000e+00 0.000000e+00
1
Step 147000
Ar -2.418220e-03 0.000000e+00 0.000000e+00
1
Step 148000
Ar -1.363764e-02 0.000000e+00 0.000000e+00
1
Step 149000
Ar -5.084951e-02 0.000000e+00 0.000000e+00
1
Step 150000
Ar 1.971593e-02 0.000000e+00 0.000000e+00
1
Step 151000
Ar -5.892868e-02 0.000000e+00 0.000000e+00
1
Step 152000
Ar 8.144856e-04 0.000000e+00 0.000000e+00
1
Step 153000
Ar 5.831062e-02 0.000000e+00 0.000000e+00
1
Step 154000
Ar -1.185254e-02 0.000000e+00 0.000000e+00
1
Step 155000
Ar 1.952689e-03 0.000000e+00 0.000000e+00
1
Step 156000
Ar -1.241251e-02 0.000000e+00 0.000000e+00
1
Step 157000
Ar -9.244645e-03 0.000000e+00 0.000000e+00
1
Step 158000
Ar -9.645808e-03 0.000000e+00 0.000000e+00
1
Step 159000
Ar 4.109025e-02 0.000000e+00 0.000000e+00
1
Step 160000
Ar 1.362571e-02 0.000000e+00 0.000000e+00
1
Step 161000
Ar -1.925710e-02 0.000000e+00 0.000000e+00
1
Step 162000
Ar -1.923621e-02 0.000000e+00 0.000000e+00
1
Step 163000
Ar 1.389241e-02 0.000000e+00 0.000000e+00
1
Step 164000
Ar -5.415150e-02 0.000000e+00 0.000000e+00
1
Step 165000
Ar 4.237841e-02 0.000000e+00 0.000000e+00
1
Step 166000
Ar -8.483941e-02 0.000000e+00 0.000000e+00
1
Step 167000
Ar -1.614877e-02 0.000000e+00 0.000000e+00
1
Step 168000
Ar -3.053423e-02 0.000000e+00 0.000000e+00
1
Step 169000
Ar 1.510066e-02 0.000000e+00 0.000000e+00
1
Step 170000
Ar -8.431367e-03 0.000000e+00 0.000000e+00
1
Step 171000
Ar -2.044764e-02 0.000000e+00 0.000000e+00
1
Step 172000
Ar -2.238955e-02 0.000000e+00 0.000000e+00
1
Step 173000
Ar -6.758616e-03 0.000000e+00 0.000000e+00
1
Step 174000
Ar 2.361173e-03 0.000000e+00 0.000000e+00
1
Step 175000
Ar 3.058736e-02 0.000000e+00 0.000000e+00
1
Step 176000
Ar 4.998521e-02 0.000000e+00 0.000000e+00
1
Step 177000
Ar -1.063537e-02 0.000000e+00 0.000000e+00
1
Step 178000
Ar 4.435069e-02 0.000000e+00 0.000000e+00
1
Step 179000
Ar 7.485491e-02 0.000000e+00 0.000000e+00
1
Step 180000
Ar -1.623838e-02 0.000000e+00 0.000000e+00
1
Step 181000
Ar 5.742623e-03 0.000000e+00 0.000000e+00
1
Step 182000
Ar -8.030386e-04 0.000000e+00 0.000000e+00
1
Step 183000
Ar 3.218509e-02 0.000000e+00 0.000000e+00
1
Step 184000
Ar -1.786532e-02 0.000000e+00 0.000000e+00
1
Step 185000
Ar 1.249157e-02 0.000000e+00 0.000000e+00
1
Step 186000
Ar -2.794891e-02 0.000000e+00 0.000000e+00
1
Step 187000
Ar -6.155682e-03 0.000000e+00 0.000000e+00
1
Step 188000
Ar 4.308534e-02 0.000000e+00 0.000000e+00
1
Step 189000
Ar -1.603465e-02 0.000000e+00 0.000000e+00
1
Step 190000
Ar 1.708699e-02 0.000000e+00 0.000000e+00
1
Step 191000
Ar -2.544302e-02 0.000000e+00 0.000000e+00
1
Step 192000
Ar -1.202111e-02 0.000000e+00 0.000000e+00
1
Step 193000
Ar -5.688660e-02 0.000000e+00 0.000000e+00
1
Step 194000
Ar -8.198479e-04 0.000000e+00 0.000000e+00
1
Step 195000
Ar 5.142877e-02 0.000000e+00 0.000000e+00
1
Step 196000
Ar -4.355355e-02 0.000000e+00 0.000000e+00
1
Step 197000
Ar -1.586957e-03 0.000000e+00 0.000000e+00
1
Step 198000
Ar 8.312080e-03 0.000000e+00 0.000000e+00
1
Step 199000
Ar -5.214923e-02 0.000000e+00 0.000000e+00
1
Step 200000
Ar -5.836983e-02 0.000000e+00 0.000000e+00
1
Step 201000
Ar 2.317961e-02 0.000000e+00 0.000000e+00
1
Step 202000
Ar 1.245361e-02 0.000000e+00 0.000000e+00
1
Step 203000
Ar -4.009759e-02 0.000000e+00 0.000000e+00
1
Step 204000
Ar 5.099832e-03 0.000000e+00 0.000000e+00
1
Step 205000
Ar -1.679517e-02 0.000000e+00 0.000000e+00
1
Step 206000
Ar -4.079307e-02 0.000000e+00 0.000000e+00
1
Step 207000
Ar 1.054225e-02 0.000000e+00 0.000000e+00
1
Step 208000
Ar 2.936182e-02 0.000000e+00 0.000000e+00
1
Step 209000
Ar 4.444125e-02 0.000000e+00 0.000000e+00
1
Step 210000
Ar -3.664199e-02 0.000000e+00 0.000000e+00
1
Step 211000
Ar 1.115882e-02 0.000000e+00 0.000000e+00
1
Step 212000
Ar 3.423731e-02 0.000000e+00 0.000000e+00
1
Step 213000
Ar 4.935126e-02 0.000000e+00 0.000000e+00
1
Step 214000
Ar -1.395385e-02 0.000000e+00 0.000000e+00
1
Step 215000
Ar -7.059332e-03 0.000000e+00 0.000000e+00
1
Step 216000
Ar 1.573725e-02 0.000000e+00 0.000000e+00
1
Step 217000
Ar -1.245913e-02 0.000000e+00 0.000000e+00
1
Step 218000
Ar 1.868557e-03 0.000000e+00 0.000000e+00
1
Step 219000
Ar 5.459994e-03 0.000000e+00 0.000000e+00
1
Step 220000
Ar -2.658275e-03 0.000000e+00 0.000000e+00
1
Step 221000
Ar -2.518853e-02 0.000000e+00 0.000000e+00
1
Step 222000
Ar -1.575206e-02 0.000000e+00 0.000000e+00
1
Step 223000
Ar 1.354254e-02 0.000000e+00 0.000000e+00
1
Step 224000
Ar 3.566085e-02 0.000000e+00 0.000000e+00
1
Step 225000
Ar -3.059169e-02 0.000000e+00 0.000000e+00
1
Step 226000
Ar -2.132561e-02 0.000000e+00 0.000000e+00
1
Step 227000
Ar 5.620173e-02 0.000000e+00 0.000000e+00
1
Step 228000
Ar 6.180751e-03 0.000000e+00 0.000000e+00
1
Step 229000
Ar 3.651274e-02 0.000000e+00 0.000000e+00
1
Step 230000
Ar -1.369733e-02 0.000000e+00 0.000000e+00
1
Step 231000
Ar 6.324167e-02 0.000000e+00 0.000000e+00
1
Step 232000
Ar -4.773048e-03 0.000000e+00 0.000000e+00
1
Step 233000
Ar -5.150815e-02 0.000000e+00 0.000000e+00
1
Step 234000
Ar -2.221486e-02 0.000000e+00 0.000000e+00
1
Step 235000
Ar -2.022213e-02 0.000000e+00 0.000000e+00
1
Step 236000
Ar -5.375484e-03 0.000000e+00 0.000000e+00
1
Step 237000
Ar -7.093405e-03 0.000000e+00 0.000000e+00
1
Step 238000
Ar -2.152659e-03 0.000000e+00 0.000000e+00
1
Step 239000
Ar 3.623248e-03 0.000000e+00 0.000000e+00
1
Step 240000
Ar 7.001262e-04 0.000000e+00 0.000000e+00
1
Step 241000
Ar 3.831155e-02 0.000000e+00 0.000000e+00
1
Step 242000
Ar -8.681073e-03 0.000000e+00 0.000000e+00
1
Step 243000
Ar -6.415322e-02 0.000000e+00 0.000000e+00
1
Step 244000
Ar -4.624978e-03 0.000000e+00 0.000000e+00
1
Step 245000
Ar -4.909480e-03 0.000000e+00 0.000000e+00
1
Step 246000
Ar 4.845142e-02 0.000000e+00 0.000000e+00
1
Step 247000
Ar -4.694321e-02 0.000000e+00 0.000000e+00
1
Step 248000
Ar -3.201132e-02 0.000000e+00 0.000000e+00
1
Step 249000
Ar 4.837554e-03 0.000000e+00 0.000000e+00
1
Step 250000
Ar -5.492600e-02 0.000000e+00 0.000000e+00
1
Step 251000
Ar -3.378370e-02 0.000000e+00 0.000000e+00
1
Step 252000
Ar 1.827084e-02 0.000000e+00 0.000000e+00
1
Step 253000
Ar 1.179950e-02 0.000000e+00 0.000000e+00
1
Step 254000
Ar 7.201952e-03 0.000000e+00 0.000000e+00
1
Step 255000
Ar 1.550415e-03 0.000000e+00 0.000000e+00
1
Step 256000
Ar -3.354973e-02 0.000000e+00 0.000000e+00
1
Step 257000
Ar -3.750040e-02 0.000000e+00 0.000000e+00
1
Step 258000
Ar -2.004174e-02 0.000000e+00 0.000000e+00
1
Step 259000
Ar 4.396447e-02 0.000000e+00 0.000000e+00
1
Step 260000
Ar 1.502945e-02 0.000000e+00 0.000000e+00
1
Step 261000
Ar 9.580216e-04 0.000000e+00 0.000000e+00
1
Step 262000
Ar -7.072570e-03 0.000000e+00 0.000000e+00
1
Step 263000
Ar -2.120511e-02 0.000000e+00 0.000000e+00
1
Step 264000
Ar 3.457686e-02 0.000000e+00 0.000000e+00
1
Step 265000
Ar 4.293901e-02 0.000000e+00 0.000000e+00
1
Step 266000
Ar 7.115707e-03 0.000000e+00 0.000000e+00
1
Step 267000
Ar -1.139398e-02 0.000000e+00 0.000000e+00
1
Step 268000
Ar -4.871380e-03 0.000000e+00 0.000000e+00
1
Step 269000
Ar -5.516536e-03 0.000000e+00 0.000000e+00
1
Step 270000
Ar 1.302336e-02 0.000000e+00 0.000000e+00
1
Step 271000
Ar -3.217558e-02 0.000000e+00 0.000000e+00
1
Step 272000
Ar -6.184493e-02 0.000000e+00 0.000000e+00
1
Step 273000
Ar -2.907779e-02 0.000000e+00 0.000000e+00
1
Step 274000
Ar 2.544607e-02 0.000000e+00 0.000000e+00
1
Step 275000
Ar -3.809518e-02 0.000000e+00 0.000000e+00
1
Step 276000
Ar -7.434597e-02 0.000000e+00 0.000000e+00
1
Step 277000
Ar 1.217706e-02 0.000000e+00 0.000000e+00
1
Step 278000
Ar 4.115537e-02 0.000000e+00 0.000000e+00
1
Step 279000
Ar -2.544360e-03 0.000000e+00 0.000000e+00
1
Step 280000
Ar -1.113440e-02 0.000000e+00 0.000000e+00
1
Step 281000
Ar 9.107817e-02 0.000000e+00 0.000000e+00
1
Step 282000
Ar -2.617289e-03 0.000000e+00 0.000000e+00
1
Step 283000
Ar 1.451448e-02 0.000000e+00 0.000000e+00
1
Step 284000
Ar 5.777666e-03 0.000000e+00 0.000000e+00
1
Step 285000
Ar -2.647583e-02 0.000000e+00 0.000000e+00
1
Step 286000
Ar -4.984559e-02 0.000000e+00 0.000000e+00
1
Step 287000
Ar 2.915491e-02 0.000000e+00 0.000000e+00
1
Step 288000
Ar -1.457258e-02 0.000000e+00 0.000000e+00
1
Step 289000
Ar -6.570139e-02 0.000000e+00 0.000000e+00
1
Step 290000
Ar -7.360038e-02 0.000000e+00 0.000000e+00
1
Step 291000
Ar 3.398766e-02 0.000000e+00 0.000000e+00
1
Step 292000
Ar -1.388163e-02 0.000000e+00 0.000000e+00
1
Step 293000
Ar 2.469859e-02 0.000000e+00 0.000000e+00
1
Step 294000
Ar 3.009499e-03 0.000000e+00 0.000000e+00
1
Step 295000
Ar -3.459157e-02 0.000000e+00 0.000000e+00
1
Step 296000
Ar -1.265550e-02 0.000000e+00 0.000000e+00
1
Step 297000
Ar -6.503856e-03 0.000000e+00 0.000000e+00
1
Step 298000
Ar 9.198830e-03 0.000000e+00 0.000000e+00
1
Step 299000
Ar -1.648305e-04 0.000000e+00 0.000000e+00
1
Step 300000
Ar -1.999361e-02 0.000000e+00 0.000000e+00
1
Step 301000
Ar 2.480027e-03 0.000000e+00 0.000000e+00
1
Step 302000
Ar 3.669721e-02 0.000000e+00 0.000000e+00
1
Step 303000
Ar 1.204028e-02 0.000000e+00 0.000000e+00
1
Step 304000
Ar 1.873007e-02 0.000000e+00 0.000000e+00
1
Step 305000
Ar -2.936301e-02 0.000000e+00 0.000000e+00
1
Step 306000
Ar -1.006453e-02 0.000000e+00 0.000000e+00
1
Step 307000
Ar -3.240890e-02 0.000000e+00 0.000000e+00
1
Step 308000
Ar 1.964051e-02 0.000000e+00 0.000000e+00
1
Step 309000
Ar 5.207862e-02 0.000000e+00 0.000000e+00
1
Step 310000
Ar -3.181811e-02 0.000000e+00 0.000000e+00
1
Step 311000
Ar -4.472305e-02 0.000000e+00 0.000000e+00
1
Step 312000
Ar 1.529289e-02 0.000000e+00 0.000000e+00
1
Step 313000
Ar 2.031844e-03 0.000000e+00 0.000000e+00
1
Step 314000
Ar -4.526778e-02 0.000000e+00 0.000000e+00
1
Step 315000
Ar -1.940259e-02 0.000000e+00 0.000000e+00
1
Step 316000
Ar -2.129582e-02 0.000000e+00 0.000000e+00
1
Step 317000
Ar 3.349387e-02 0.000000e+00 0.000000e+00
1
Step 318000
Ar -1.572004e-02 0.000000e+00 0.000000e+00
1
Step 319000
Ar -3.008579e-02 0.000000e+00 0.000000e+00
1
Step 320000
Ar 1.539316e-02 0.000000e+00 0.000000e+00
1
Step 321000
Ar 1.120625e-02 0.000000e+00 0.000000e+00
1
Step 322000
Ar -2.347835e-02 0.000000e+00 0.000000e+00
1
Step 323000
Ar 9.307918e-03 0.000000e+00 0.000000e+00
1
Step 324000
Ar -4.631400e-02 0.000000e+00 0.000000e+00
1
Step 325000
Ar -1.910307e-02 0.000000e+00 0.000000e+00
1
Step 326000
Ar -4.218266e-02 0.000000e+00 0.000000e+00
1
Step 327000
Ar 1.278873e-02 0.000000e+00 0.000000e+00
1
Step 328000
Ar -2.569504e-02 0.000000e+00 0.000000e+00
1
Step 329000
Ar 6.045737e-02 0.000000e+00 0.000000e+00
1
Step 330000
Ar 1.454658e-02 0.000000e+00 0.000000e+00
1
Step 331000
Ar 4.882331e-03 0.000000e+00 0.000000e+00
1
Step 332000
Ar 3.006250e-02 0.000000e+00 0.000000e+00
1
Step 333000
Ar -5.612272e-02 0.000000e+00 0.000000e+00
1
Step 334000
Ar -5.400290e-02 0.000000e+00 0.000000e+00
1
Step 335000
Ar -2.101881e-02 0.000000e+00 0.000000e+00
1
Step 336000
Ar 3.456333e-02 0.000000e+00 0.000000e+00
1
Step 337000
Ar 1.798705e-02 0.000000e+00 0.000000e+00
1
Step 338000
Ar 8.685827e-03 0.000000e+00 0.000000e+00
1
Step 339000
Ar -3.487297e-02 0.000000e+00 0.000000e+00
1
Step 340000
Ar 3.303053e-03 0.000000e+00 0.000000e+00
1
Step 341000
Ar -1.497981e-02 0.000000e+00 0.000000e+00
1
Step 342000
Ar 1.140956e-02 0.000000e+00 0.000000e+00
1
Step 343000
Ar -3.743768e-02 0.000000e+00 0.000000e+00
1
Step 344000
Ar -2.130388e-02 0.000000e+00 0.000000e+00
1
Step 345000
Ar -1.260558e-02 0.000000e+00 0.000000e+00
1
Step 346000
Ar -2.578493e-02 0.000000e+00 0.000000e+00
1
Step 347000
Ar 1.625599e-02 0.000000e+00 0.000000e+00
1
Step 348000
Ar 5.967787e-02 0.000000e+00 0.000000e+00
1
Step 349000
Ar 4.210555e-02 0.000000e+00 0.000000e+00
1
Step 350000
Ar -2.403412e-02 0.000000e+00 0.000000e+00
1
Step 351000
Ar 2.367657e-02 0.000000e+00 0.000000e+00
1
Step 352000
Ar 8.196117e-03 0.000000e+00 0.000000e+00
1
Step 353000
Ar 6.398210e-03 0.000000e+00 0.000000e+00
1
Step 354000
Ar 1.639760e-02 0.000000e+00 0.000000e+00
1
Step 355000
Ar -6.705512e-03 0.000000e+00 0.000000e+00
1
Step 356000
Ar -1.646798e-02 0.000000e+00 0.000000e+00
1
Step 357000
Ar 8.023563e-03 0.000000e+00 0.000000e+00
1
Step 358000
Ar 1.472077e-02 0.000000e+00 0.000000e+00
1
Step 359000
Ar -2.533462e-02 0.000000e+00 0.000000e+00
1
Step 360000
Ar -1.228570e-03 0.000000e+00 0.000000e+00
1
Step 361000
Ar 9.257861e-03 0.000000e+00 0.000000e+00
1
Step 362000
Ar -4.293989e-02 0.000000e+00 0.000000e+00
1
Step 363000
Ar -3.096865e-02 0.000000e+00 0.000000e+00
1
Step 364000
Ar 5.563948e-02 0.000000e+00 0.000000e+00
1
Step 365000
Ar 1.375025e-02 0.000000e+00 0.000000e+00
1
Step 366000
Ar 6.972513e-02 0.000000e+00 0.000000e+00
1
Step 367000
Ar -1.712151e-02 0.000000e+00 0.000000e+00
1
Step 368000
Ar -4.082033e-03 0.000000e+00 0.000000e+00
1
Step 369000
Ar 4.285289e-02 0.000000e+00 0.000000e+00
1
Step 370000
Ar 1.189286e-02 0.000000e+00 0.000000e+00
1
Step 371000
Ar 6.732365e-02 0.000000e+00 0.000000e+00
1
Step 372000
Ar 5.024591e-02 0.000000e+00 0.000000e+00
1
Step 373000
Ar 1.261596e-02 0.000000e+00 0.000000e+00
1
Step 374000
Ar 1.140573e-03 0.000000e+00 0.000000e+00
1
Step 375000
Ar -4.570206e-02 0.000000e+00 0.000000e+00
1
Step 376000
Ar -8.759251e-02 0.000000e+00 0.000000e+00
1
Step 377000
Ar -6.374236e-02 0.000000e+00 0.000000e+00
1
Step 378000
Ar -6.860555e-02 0.000000e+00 0.000000e+00
1
Step 379000
Ar -3.100789e-02 0.000000e+00 0.000000e+00
1
Step 380000
Ar -1.301430e-02 0.000000e+00 0.000000e+00
1
Step 381000
Ar 3.565349e-02 0.000000e+00 0.000000e+00
1
Step 382000
Ar -1.841062e-02 0.000000e+00 0.000000e+00
1
Step 383000
Ar 2.165517e-02 0.000000e+00 0.000000e+00
1
Step 384000
Ar -3.853515e-02 0.000000e+00 0.000000e+00
1
Step 385000
Ar 2.256713e-02 0.000000e+00 0.000000e+00
1
Step 386000
Ar -4.637839e-02 0.000000e+00 0.000000e+00
1
Step 387000
Ar -1.649621e-02 0.000000e+00 0.000000e+00
1
Step 388000
Ar -4.422704e-03 0.000000e+00 0.000000e+00
1
Step 389000
Ar 3.655815e-02 0.000000e+00 0.000000e+00
1
Step 390000
Ar 2.654879e-04 0.000000e+00 0.000000e+00
1
Step 391000
Ar -5.799953e-02 0.000000e+00 0.000000e+00
1
Step 392000
Ar 2.087092e-02 0.000000e+00 0.000000e+00
1
Step 393000
Ar -1.162537e-02 0.000000e+00 0.000000e+00
1
Step 394000
Ar 2.208936e-02 0.000000e+00 0.000000e+00
1
Step 395000
Ar 2.272534e-03 0.000000e+00 0.000000e+00
1
Step 396000
Ar 5.597818e-02 0.000000e+00 0.000000e+00
1
Step 397000
Ar -2.311954e-02 0.000000e+00 0.000000e+00
1
Step 398000
Ar 4.719339e-02 0.000000e+00 0.000000e+00
1
Step 399000
Ar 2.201327e-02 0.000000e+00 0.000000e+00
1
Step 400000
Ar 1.274168e-02 0.000000e+00 0.000000e+00
1
Step 401000
Ar 2.240151e-03 0.000000e+00 0.000000e+00
1
Step 402000
Ar -2.515757e-02 0.000000e+00 0.000000e+00
1
Step 403000
Ar 2.216786e-02 0.000000e+00 0.000000e+00
1
Step 404000
Ar -2.518593e-04 0.000000e+00 0.000000e+00
1
Step 405000
Ar 5.425852e-02 0.000000e+00 0.000000e+00
1
Step 406000
Ar -4.911313e-02 0.000000e+00 0.000000e+00
1
Step 407000
Ar 4.906794e-02 0.000000e+00 0.000000e+00
1
Step 408000
Ar 3.500166e-02 0.000000e+00 0.000000e+00
1
Step 409000
Ar -1.096124e-02 0.000000e+00 0.000000e+00
1
Step 410000
Ar -3.886941e-02 0.000000e+00 0.000000e+00
1
Step 411000
Ar 7.605852e-03 0.000000e+00 0.000000e+00
1
Step 412000
Ar -4.932465e-02 0.000000e+00 0.000000e+00
1
Step 413000
Ar -6.942501e-03 0.000000e+00 0.000000e+00
1
Step 414000
Ar 2.591722e-02 0.000000e+00 0.000000e+00
1
Step 415000
Ar 9.371687e-03 0.000000e+00 0.000000e+00
1
Step 416000
Ar 6.536614e-02 0.000000e+00 0.000000e+00
1
Step 417000
Ar -2.230454e-02 0.000000e+00 0.000000e+00
1
Step 418000
Ar -2.197718e-02 0.000000e+00 0.000000e+00
1
Step 419000
Ar 5.342117e-02 0.000000e+00 0.000000e+00
1
Step 420000
Ar -5.013986e-03 0.000000e+00 0.000000e+00
1
Step 421000
Ar 2.498148e-02 0.000000e+00 0.000000e+00
1
Step 422000
Ar -7.233862e-02 0.000000e+00 0.000000e+00
1
Step 423000
Ar -2.823201e-02 0.000000e+00 0.000000e+00
1
Step 424000
Ar -4.996579e-02 0.000000e+00 0.000000e+00
1
Step 425000
Ar -3.966385e-02 0.000000e+00 0.000000e+00
1
Step 426000
Ar -3.300009e-02 0.000000e+00 0.000000e+00
1
Step 427000
Ar 3.159465e-02 0.000000e+00 0.000000e+00
1
Step 428000
Ar 7.178767e-03 0.000000e+00 0.000000e+00
1
Step 429000
Ar 1.007167e-02 0.000000e+00 0.000000e+00
1
Step 430000
Ar 5.096731e-02 0.000000e+00 0.000000e+00
1
Step 431000
Ar -1.772727e-02 0.000000e+00 0.000000e+00
1
Step 432000
Ar -1.020514e-02 0.000000e+00 0.000000e+00
1
Step 433000
Ar 4.399847e-02 0.000000e+00 0.000000e+00
1
Step 434000
Ar -5.519319e-03 0.000000e+00 0.000000e+00
1
Step 435000
Ar -5.376520e-02 0.000000e+00 0.000000e+00
1
Step 436000
Ar 8.032536e-04 0.000000e+00 0.000000e+00
1
Step 437000
Ar 2.482330e-02 0.000000e+00 0.000000e+00
1
Step 438000
Ar -1.467285e-02 0.000000e+00 0.000000e+00
1
Step 439000
Ar 8.705356e-04 0.000000e+00 0.000000e+00
1
Step 440000
Ar 5.659439e-04 0.000000e+00 0.000000e+00
1
Step 441000
Ar 4.609703e-02 0.000000e+00 0.000000e+00
1
Step 442000
Ar 2.763086e-02 0.000000e+00 0.000000e+00
1
Step 443000
Ar -3.190692e-02 0.000000e+00 0.000000e+00
1
Step 444000
Ar -7.381118e-03 0.000000e+00 0.000000e+00
1
Step 445000
Ar 1.562054e-02 0.000000e+00 0.000000e+00
1
Step 446000
Ar 7.201524e-03 0.000000e+00 0.000000e+00
1
Step 447000
Ar -4.095344e-02 0.000000e+00 0.000000e+00
1
Step 448000
Ar -3.137165e-02 0.000000e+00 0.000000e+00
1
Step 449000
Ar -5.867588e-02 0.000000e+00 0.000000e+00
1
Step 450000
Ar 3.733020e-02 0.000000e+00 0.000000e+00
1
Step 451000
Ar -6.191879e-02 0.000000e+00 0.000000e+00
1
Step 452000
Ar 7.102520e-02 0.000000e+00 0.000000e+00
1
Step 453000
Ar -1.851296e-02 0.000000e+00 0.000000e+00
1
Step 454000
Ar -4.973788e-02 0.000000e+00 0.000000e+00
1
Step 455000
Ar -1.408342e-02 0.000000e+00 0.000000e+00
1
Step 456000
Ar 4.331141e-02 0.000000e+00 0.000000e+00
1
Step 457000
Ar -5.795458e-02 0.000000e+00 0.000000e+00
1
Step 458000
Ar 2.507865e-02 0.000000e+00 0.000000e+00
1
Step 459000
Ar -3.281482e-02 0.000000e+00 0.000000e+00
1
Step 460000
Ar 4.140776e-03 0.000000e+00 0.000000e+00
1
Step 461000
Ar 6.358644e-03 0.000000e+00 0.000000e+00
1
Step 462000
Ar -2.554572e-02 0.000000e+00 0.000000e+00
1
Step 463000
Ar -8.098592e-02 0.000000e+00 0.000000e+00
1
Step 464000
Ar -8.203543e-03 0.000000e+00 0.000000e+00
1
Step 465000
Ar -4.160062e-03 0.000000e+00 0.000000e+00
1
Step 466000
Ar -9.946071e-02 0.000000e+00 0.000000e+00
1
Step 467000
Ar -2.666880e-02 0.000000e+00 0.000000e+00
1
Step 468000
Ar -3.852156e-02 0.000000e+00 0.000000e+00
1
Step 469000
Ar 1.019136e-02 0.000000e+00 0.000000e+00
1
Step 470000
Ar -2.857001e-02 0.000000e+00 0.000000e+00
1
Step 471000
Ar 1.645665e-02 0.000000e+00 0.000000e+00
1
Step 472000
Ar 4.528708e-02 0.000000e+00 0.000000e+00
1
Step 473000
Ar 7.799677e-03 0.000000e+00 0.000000e+00
1
Step 474000
Ar -3.915232e-02 0.000000e+00 0.000000e+00
1
Step 475000
Ar 6.636534e-03 0.000000e+00 0.000000e+00
1
Step 476000
Ar -1.183128e-03 0.000000e+00 0.000000e+00
1
Step 477000
Ar -1.508674e-02 0.000000e+00 0.000000e+00
1
Step 478000
Ar -6.350697e-02 0.000000e+00 0.000000e+00
1
Step 479000
Ar 1.438398e-02 0.000000e+00 0.000000e+00
1
Step 480000
Ar 3.502545e-02 0.000000e+00 0.000000e+00
1
Step 481000
Ar -8.304627e-03 0.000000e+00 0.000000e+00
1
Step 482000
Ar 6.634853e-03 0.000000e+00 0.000000e+00
1
Step 483000
Ar -4.234580e-02 0.000000e+00 0.000000e+00
1
Step 484000
Ar 6.907847e-02 0.000000e+00 0.000000e+00
1
Step 485000
Ar 2.150081e-02 0.000000e+00 0.000000e+00
1
Step 486000
Ar 3.709180e-03 0.000000e+00 0.000000e+00
1
Step 487000
Ar 6.784193e-02 0.000000e+00 0.000000e+00
1
Step 488000
Ar 2.823893e-02 0.000000e+00 0.000000e+00
1
Step 489000
Ar 1.214032e-02 0.000000e+00 0.000000e+00
1
Step 490000
Ar -2.267203e-02 0.000000e+00 0.000000e+00
1
Step 491000
Ar 2.153789e-02 0.000000e+00 0.000000e+00
1
Step 492000
Ar 5.362844e-02 0.000000e+00 0.000000e+00
1
Step 493000
Ar 3.261574e-02 0.000000e+00 0.000000e+00
1
Step 494000
Ar -1.991683e-02 0.000000e+00 0.000000e+00
1
Step 495000
Ar 2.204911e-02 0.000000e+00 0.000000e+00
1
Step 496000
Ar -3.134759e-03 0.000000e+00 0.000000e+00
1
Step 497000
Ar -3.296809e-02 0.000000e+00 0.000000e+00
1
Step 498000
Ar -2.380109e-02 0.000000e+00 0.000000e+00
1
Step 499000
Ar -2.338733e-02 0.000000e+00 0.000000e+00
