1
Step 120000
Ar 1.009685e+00 0.000000e+00 0.000000e+00
1
Step 121000
Ar 1.004226e+00 0.000000e+00 0.000000e+00
1
Step 122000
Ar 9.964973e-01 0.000000e+00 0.000000e+00
1
Step 123000
Ar 9.996203e-01 0.000000e+00 0.000000e+00
1
Step 124000
Ar 1.017044e+00 0.000000e+00 0.000000e+00
1
Step 125000
Ar 9.866705e-01 0.000000e+00 0.000000e+00
1
Step 126000
Ar 9.667067e-01 0.000000e+00 0.000000e+00
1
Step 127000
Ar 9.727795e-01 0.000000e+00 0.000000e+00
1
Step 128000
Ar 9.711138e-01 0.000000e+00 0.000000e+00
1
Step 129000
Ar 9.732633e-01 0.000000e+00 0.000000e+00
1
Step 130000
Ar 9.751462e-01 0.000000e+00 0.000000e+00
1
Step 131000
Ar 9.553517e-01 0.000000e+00 0.000000e+00
1
Step 132000
Ar 9.646485e-01 0.000000e+00 0.000000e+00
1
Step 133000
Ar 9.626828e-01 0.000000e+00 0.000000e+00
1
Step 134000
Ar 9.632592e-01 0.000000e+00 0.000000e+00
1
Step 135000
Ar 9.596785e-01 0.000000e+00 0.000000e+00
1
Step 136000
Ar 1.013570e+00 0.000000e+00 0.000000e+00
1
Step 137000
Ar 9.972023e-01 0.000000e+00 0.000000e+00
1
Step 138000
Ar 1.000736e+00 0.000000e+00 0.000000e+00
1
Step 139000
Ar 1.016294e+00 0.000000e+00 0.000000e+00
1
Step 140000
Ar 1.027307e+00 0.000000e+00 0.000000e+00
1
Step 141000
Ar 9.986532e-01 0.000000e+00 0.000000e+00
1
Step 142000
Ar 1.003167e+00 0.000000e+00 0.000000e+00
1
Step 143000
Ar 1.000261e+00 0.000000e+00 0.000000e+00
1
Step 144000
Ar 1.003585e+00 0.000000e+00 0.000000e+00
1
Step 145000
Ar 9.978046e-01 0.000000e+00 0.000000e+00
1
Step 146000
Ar 1.015145e+00 0.000000e+00 0.000000e+00
1
Step 147000
Ar 1.009746e+00 0.000000e+00 0.000000e+00
1
Step 148000
Ar 1.016300e+00 0.000000e+00 0.000000e+00
1
Step 149000
Ar 1.011435e+00 0.000000e+00 0.000000e+00
1
Step 150000
Ar 1.013854e+00 0.000000e+00 0.000000e+00
1
Step 151000
Ar 9.478216e-01 0.000000e+00 0.000000e+00
1
Step 152000
Ar 9.459310e-01 0.000000e+00 0.000000e+00
1
Step 153000
Ar 9.463046e-01 0.000000e+00 0.000000e+00
1
Step 154000
Ar 9.481027e-01 0.000000e+00 0.000000e+00
1
Step 155000
Ar 9.429031e-01 0.000000e+00 0.000000e+00
1
Step 156000
Ar 1.037670e+00 0.000000e+00 0.000000e+00
1
Step 157000
Ar 1.051925e+00 0.000000e+00 0.000000e+00
1
Step 158000
Ar 1.037846e+00 0.000000e+00 0.000000e+00
1
Step 159000
Ar 1.040376e+00 0.000000e+00 0.000000e+00
1
Step 160000
Ar 1.038136e+00 0.000000e+00 0.000000e+00
1
Step 161000
Ar 1.050532e+00 0.000000e+00 0.000000e+00
1
Step 162000
Ar 1.048402e+00 0.000000e+00 0.000000e+00
1
Step 163000
Ar 1.050919e+00 0.000000e+00 0.000000e+00
1
Step 164000
Ar 1.051311e+00 0.000000e+00 0.000000e+00
1
Step 165000
Ar 1.053792e+00 0.000000e+00 0.000000e+00
1
Step 166000
Ar 9.356458e-01 0.000000e+00 0.000000e+00
1
Step 167000
Ar 9.224263e-01 0.000000e+00 0.000000e+00
1
Step 168000
Ar 9.307831e-01 0.000000e+00 0.000000e+00
1
Step 169000
Ar 9.272168e-01 0.000000e+00 0.000000e+00
1
Step 170000
Ar 9.276370e-01 0.000000e+00 0.000000e+00
1
Step 171000
Ar 9.664462e-01 0.000000e+00 0.000000e+00
1
Step 172000
Ar 1.069238e+00 0.000000e+00 0.000000e+00
1
Step 173000
Ar 1.071978e+00 0.000000e+00 0.000000e+00
1
Step 174000
Ar 1.064828e+00 0.000000e+00 0.000000e+00
1
Step 175000
Ar 1.068417e+00 0.000000e+00 0.000000e+00
1
Step 176000
Ar 9.104432e-01 0.000000e+00 0.000000e+00
1
Step 177000
Ar 9.174576e-01 0.000000e+00 0.000000e+00
1
Step 178000
Ar 9.191230e-01 0.000000e+00 0.000000e+00
1
Step 179000
Ar 9.199379e-01 0.000000e+00 0.000000e+00
1
Step 180000
Ar 9.160821e-01 0.000000e+00 0.000000e+00
1
Step 181000
Ar 1.041617e+00 0.000000e+00 0.000000e+00
1
Step 182000
Ar 1.079443e+00 0.000000e+00 0.000000e+00
1
Step 183000
Ar 1.078944e+00 0.000000e+00 0.000000e+00
1
Step 184000
Ar 1.083536e+00 0.000000e+00 0.000000e+00
1
Step 185000
Ar 1.076856e+00 0.000000e+00 0.000000e+00
1
Step 186000
Ar 1.088404e+00 0.000000e+00 0.000000e+00
1
Step 187000
Ar 1.084240e+00 0.000000e+00 0.000000e+00
1
Step 188000
Ar 1.085621e+00 0.000000e+00 0.000000e+00
1
Step 189000
Ar 1.088576e+00 0.000000e+00 0.000000e+00
1
Step 190000
Ar 1.086564e+00 0.000000e+00 0.000000e+00
1
Step 191000
Ar 9.645543e-01 0.000000e+00 0.000000e+00
1
Step 192000
Ar 1.005478e+00 0.000000e+00 0.000000e+00
1
Step 193000
Ar 1.018067e+00 0.000000e+00 0.000000e+00
1
Step 194000
Ar 9.702253e-01 0.000000e+00 0.000000e+00
1
Step 195000
Ar 9.083454e-01 0.000000e+00 0.000000e+00
1
Step 196000
Ar 8.983318e-01 0.000000e+00 0.000000e+00
1
Step 197000
Ar 8.975506e-01 0.000000e+00 0.000000e+00
1
Step 198000
Ar 8.955898e-01 0.000000e+00 0.000000e+00
1
Step 199000
Ar 8.908214e-01 0.000000e+00 0.000000e+00
1
Step 200000
Ar 8.984749e-01 0.000000e+00 0.000000e+00
1
Step 201000
Ar 1.000564e+00 0.000000e+00 0.000000e+00
1
Step 202000
Ar 9.818037e-01 0.000000e+00 0.000000e+00
1
Step 203000
Ar 8.883651e-01 0.000000e+00 0.000000e+00
1
Step 204000
Ar 1.043858e+00 0.000000e+00 0.000000e+00
1
Step 205000
Ar 1.001434e+00 0.000000e+00 0.000000e+00
1
Step 206000
Ar 9.488713e-01 0.000000e+00 0.000000e+00
1
Step 207000
Ar 1.044586e+00 0.000000e+00 0.000000e+00
1
Step 208000
Ar 1.018450e+00 0.000000e+00 0.000000e+00
1
Step 209000
Ar 9.525749e-01 0.000000e+00 0.000000e+00
1
Step 210000
Ar 1.099548e+00 0.000000e+00 0.000000e+00
1
Step 211000
Ar 8.754173e-01 0.000000e+00 0.000000e+00
1
Step 212000
Ar 8.782205e-01 0.000000e+00 0.000000e+00
1
Step 213000
Ar 1.015604e+00 0.000000e+00 0.000000e+00
1
Step 214000
Ar 1.081982e+00 0.000000e+00 0.000000e+00
1
Step 215000
Ar 9.706471e-01 0.000000e+00 0.000000e+00
1
Step 216000
Ar 9.868217e-01 0.000000e+00 0.000000e+00
1
Step 217000
Ar 9.820174e-01 0.000000e+00 0.000000e+00
1
Step 218000
Ar 1.012371e+00 0.000000e+00 0.000000e+00
1
Step 219000
Ar 9.332434e-01 0.000000e+00 0.000000e+00
1
Step 220000
Ar 1.020383e+00 0.000000e+00 0.000000e+00
1
Step 221000
Ar 8.896538e-01 0.000000e+00 0.000000e+00
1
Step 222000
Ar 8.899440e-01 0.000000e+00 0.000000e+00
1
Step 223000
Ar 1.107955e+00 0.000000e+00 0.000000e+00
1
Step 224000
Ar 9.722196e-01 0.000000e+00 0.000000e+00
1
Step 225000
Ar 8.818870e-01 0.000000e+00 0.000000e+00
1
Step 226000
Ar 9.353701e-01 0.000000e+00 0.000000e+00
1
Step 227000
Ar 1.022526e+00 0.000000e+00 0.000000e+00
1
Step 228000
Ar 9.862983e-01 0.000000e+00 0.000000e+00
1
Step 229000
Ar 9.856009e-01 0.000000e+00 0.000000e+00
1
Step 230000
Ar 9.903486e-01 0.000000e+00 0.000000e+00
1
Step 231000
Ar 1.050449e+00 0.000000e+00 0.000000e+00
1
Step 232000
Ar 9.424335e-01 0.000000e+00 0.000000e+00
1
Step 233000
Ar 9.818796e-01 0.000000e+00 0.000000e+00
1
Step 234000
Ar 1.041769e+00 0.000000e+00 0.000000e+00
1
Step 235000
Ar 1.110578e+00 0.000000e+00 0.000000e+00
1
Step 236000
Ar 9.328879e-01 0.000000e+00 0.000000e+00
1
Step 237000
Ar 1.005894e+00 0.000000e+00 0.000000e+00
1
Step 238000
Ar 8.703706e-01 0.000000e+00 0.000000e+00
1
Step 239000
Ar 8.706420e-01 0.000000e+00 0.000000e+00
1
Step 240000
Ar 8.721352e-01 0.000000e+00 0.000000e+00
1
Step 241000
Ar 1.141109e+00 0.000000e+00 0.000000e+00
1
Step 242000
Ar 1.046816e+00 0.000000e+00 0.000000e+00
1
Step 243000
Ar 8.919047e-01 0.000000e+00 0.000000e+00
1
Step 244000
Ar 8.939525e-01 0.000000e+00 0.000000e+00
1
Step 245000
Ar 1.038491e+00 0.000000e+00 0.000000e+00
1
Step 246000
Ar 8.626668e-01 0.000000e+00 0.000000e+00
1
Step 247000
Ar 8.580286e-01 0.000000e+00 0.000000e+00
1
Step 248000
Ar 9.161231e-01 0.000000e+00 0.000000e+00
1
Step 249000
Ar 1.077188e+00 0.000000e+00 0.000000e+00
1
Step 250000
Ar 9.671857e-01 0.000000e+00 0.000000e+00
1
Step 251000
Ar 1.116334e+00 0.000000e+00 0.000000e+00
1
Step 252000
Ar 1.116953e+00 0.000000e+00 0.000000e+00
1
Step 253000
Ar 1.114461e+00 0.000000e+00 0.000000e+00
1
Step 254000
Ar 1.124725e+00 0.000000e+00 0.000000e+00
1
Step 255000
Ar 9.503397e-01 0.000000e+00 0.000000e+00
1
Step 256000
Ar 9.535189e-01 0.000000e+00 0.000000e+00
1
Step 257000
Ar 9.535315e-01 0.000000e+00 0.000000e+00
1
Step 258000
Ar 9.577061e-01 0.000000e+00 0.000000e+00
1
Step 259000
Ar 9.547706e-01 0.000000e+00 0.000000e+00
1
Step 260000
Ar 9.556781e-01 0.000000e+00 0.000000e+00
1
Step 261000
Ar 8.705749e-01 0.000000e+00 0.000000e+00
1
Step 262000
Ar 9.462363e-01 0.000000e+00 0.000000e+00
1
Step 263000
Ar 1.142093e+00 0.000000e+00 0.000000e+00
1
Step 264000
Ar 9.843579e-01 0.000000e+00 0.000000e+00
1
Step 265000
Ar 8.618180e-01 0.000000e+00 0.000000e+00
1
Step 266000
Ar 9.976815e-01 0.000000e+00 0.000000e+00
1
Step 267000
Ar 1.076735e+00 0.000000e+00 0.000000e+00
1
Step 268000
Ar 1.115657e+00 0.000000e+00 0.000000e+00
1
Step 269000
Ar 1.116242e+00 0.000000e+00 0.000000e+00
1
Step 270000
Ar 8.432130e-01 0.000000e+00 0.000000e+00
1
Step 271000
Ar 1.012928e+00 0.000000e+00 0.000000e+00
1
Step 272000
Ar 9.183927e-01 0.000000e+00 0.000000e+00
1
Step 273000
Ar 9.682323e-01 0.000000e+00 0.000000e+00
1
Step 274000
Ar 8.561458e-01 0.000000e+00 0.000000e+00
1
Step 275000
Ar 9.749918e-01 0.000000e+00 0.000000e+00
1
Step 276000
Ar 1.014292e+00 0.000000e+00 0.000000e+00
1
Step 277000
Ar 1.044443e+00 0.000000e+00 0.000000e+00
1
Step 278000
Ar 1.091360e+00 0.000000e+00 0.000000e+00
1
Step 279000
Ar 9.395315e-01 0.000000e+00 0.000000e+00
1
Step 280000
Ar 1.148294e+00 0.000000e+00 0.000000e+00
1
Step 281000
Ar 9.122908e-01 0.000000e+00 0.000000e+00
1
Step 282000
Ar 6.998208e-01 0.000000e+00 0.000000e+00
1
Step 283000
Ar 9.611382e-01 0.000000e+00 0.000000e+00
1
Step 284000
Ar 1.186609e+00 0.000000e+00 0.000000e+00
1
Step 285000
Ar 9.965261e-01 0.000000e+00 0.000000e+00
1
Step 286000
Ar 1.086935e+00 0.000000e+00 0.000000e+00
1
Step 287000
Ar 9.426248e-01 0.000000e+00 0.000000e+00
1
Step 288000
Ar 7.920983e-01 0.000000e+00 0.000000e+00
1
Step 289000
Ar 8.834355e-01 0.000000e+00 0.000000e+00
1
Step 290000
Ar 7.460471e-01 0.000000e+00 0.000000e+00
1
Step 291000
Ar 9.763424e-01 0.000000e+00 0.000000e+00
1
Step 292000
Ar 9.340198e-01 0.000000e+00 0.000000e+00
1
Step 293000
Ar 1.122461e+00 0.000000e+00 0.000000e+00
1
Step 294000
Ar 9.207413e-01 0.000000e+00 0.000000e+00
1
Step 295000
Ar 1.234197e+00 0.000000e+00 0.000000e+00
1
Step 296000
Ar 8.774122e-01 0.000000e+00 0.000000e+00
1
Step 297000
Ar 1.129260e+00 0.000000e+00 0.000000e+00
1
Step 298000
Ar 1.120563e+00 0.000000e+00 0.000000e+00
1
Step 299000
Ar 1.052406e+00 0.000000e+00 0.000000e+00
1
Step 300000
Ar 9.158297e-01 0.000000e+00 0.000000e+00
1
Step 301000
Ar 8.979333e-01 0.000000e+00 0.000000e+00
1
Step 302000
Ar 9.350698e-01 0.000000e+00 0.000000e+00
1
Step 303000
Ar 8.873720e-01 0.000000e+00 0.000000e+00
1
Step 304000
Ar 1.028637e+00 0.000000e+00 0.000000e+00
1
Step 305000
Ar 1.151906e+00 0.000000e+00 0.000000e+00
1
Step 306000
Ar 9.333744e-01 0.000000e+00 0.000000e+00
1
Step 307000
Ar 1.081762e+00 0.000000e+00 0.000000e+00
1
Step 308000
Ar 1.183127e+00 0.000000e+00 0.000000e+00
1
Step 309000
Ar 8.301545e-01 0.000000e+00 0.000000e+00
1
Step 310000
Ar 1.214647e+00 0.000000e+00 0.000000e+00
1
Step 311000
Ar 9.005721e-01 0.000000e+00 0.000000e+00
1
Step 312000
Ar 9.073976e-01 0.000000e+00 0.000000e+00
1
Step 313000
Ar 7.866701e-01 0.000000e+00 0.000000e+00
1
Step 314000
Ar 8.562765e-01 0.000000e+00 0.000000e+00
1
Step 315000
Ar 1.156122e+00 0.000000e+00 0.000000e+00
1
Step 316000
Ar 1.027657e+00 0.000000e+00 0.000000e+00
1
Step 317000
Ar 9.417552e-01 0.000000e+00 0.000000e+00
1
Step 318000
Ar 1.030817e+00 0.000000e+00 0.000000e+00
1
Step 319000
Ar 1.140475e+00 0.000000e+00 0.000000e+00
1
Step 320000
Ar 1.073091e+00 0.000000e+00 0.000000e+00
1
Step 321000
Ar 9.164366e-01 0.000000e+00 0.000000e+00
1
Step 322000
Ar 1.253463e+00 0.000000e+00 0.000000e+00
1
Step 323000
Ar 1.009465e+00 0.000000e+00 0.000000e+00
1
Step 324000
Ar 1.256418e+00 0.000000e+00 0.000000e+00
1
Step 325000
Ar 1.241621e+00 0.000000e+00 0.000000e+00
1
Step 326000
Ar 1.241712e+00 0.000000e+00 0.000000e+00
1
Step 327000
Ar 5.657718e-01 0.000000e+00 0.000000e+00
1
Step 328000
Ar 9.583651e-01 0.000000e+00 0.000000e+00
1
Step 329000
Ar 9.010932e-01 0.000000e+00 0.000000e+00
1
Step 330000
Ar 9.788124e-01 0.000000e+00 0.000000e+00
1
Step 331000
Ar 7.828966e-01 0.000000e+00 0.000000e+00
1
Step 332000
Ar 9.170793e-01 0.000000e+00 0.000000e+00
1
Step 333000
Ar 1.122951e+00 0.000000e+00 0.000000e+00
1
Step 334000
Ar 9.770822e-01 0.000000e+00 0.000000e+00
1
Step 335000
Ar 1.109550e+00 0.000000e+00 0.000000e+00
1
Step 336000
Ar 1.013312e+00 0.000000e+00 0.000000e+00
1
Step 337000
Ar 9.862248e-01 0.000000e+00 0.000000e+00
1
Step 338000
Ar 8.930181e-01 0.000000e+00 0.000000e+00
1
Step 339000
Ar 8.950615e-01 0.000000e+00 0.000000e+00
1
Step 340000
Ar 7.889389e-01 0.000000e+00 0.000000e+00
1
Step 341000
Ar 1.156302e+00 0.000000e+00 0.000000e+00
1
Step 342000
Ar 1.087371e+00 0.000000e+00 0.000000e+00
1
Step 343000
Ar 1.093450e+00 0.000000e+00 0.000000e+00
1
Step 344000
Ar 1.083671e+00 0.000000e+00 0.000000e+00
1
Step 345000
Ar 1.081837e+00 0.000000e+00 0.000000e+00
1
Step 346000
Ar 8.534626e-01 0.000000e+00 0.000000e+00
1
Step 347000
Ar 7.895855e-01 0.000000e+00 0.000000e+00
1
Step 348000
Ar 1.076038e+00 0.000000e+00 0.000000e+00
1
Step 349000
Ar 7.200723e-01 0.000000e+00 0.000000e+00
1
Step 350000
Ar 1.124376e+00 0.000000e+00 0.000000e+00
1
Step 351000
Ar 6.445846e-01 0.000000e+00 0.000000e+00
1
Step 352000
Ar 1.074055e+00 0.000000e+00 0.000000e+00
1
Step 353000
Ar 1.170118e+00 0.000000e+00 0.000000e+00
1
Step 354000
Ar 1.178225e+00 0.000000e+00 0.000000e+00
1
Step 355000
Ar 1.097214e+00 0.000000e+00 0.000000e+00
1
Step 356000
Ar 1.029769e+00 0.000000e+00 0.000000e+00
1
Step 357000
Ar 9.116553e-01 0.000000e+00 0.000000e+00
1
Step 358000
Ar 1.141908e+00 0.000000e+00 0.000000e+00
1
Step 359000
Ar 1.166974e+00 0.000000e+00 0.000000e+00
1
Step 360000
Ar 1.006321e+00 0.000000e+00 0.000000e+00
1
Step 361000
Ar 5.486422e-01 0.000000e+00 0.000000e+00
1
Step 362000
Ar 1.067976e+00 0.000000e+00 0.000000e+00
1
Step 363000
Ar 1.002178e+00 0.000000e+00 0.000000e+00
1
Step 364000
Ar 6.686357e-01 0.000000e+00 0.000000e+00
1
Step 365000
Ar 7.500500e-01 0.000000e+00 0.000000e+00
1
Step 366000
Ar 1.083644e+00 0.000000e+00 0.000000e+00
1
Step 367000
Ar 1.047316e+00 0.000000e+00 0.000000e+00
1
Step 368000
Ar 8.853371e-01 0.000000e+00 0.000000e+00
1
Step 369000
Ar 1.162923e+00 0.000000e+00 0.000000e+00
1
Step 370000
Ar 9.336943e-01 0.000000e+00 0.000000e+00
1
Step 371000
Ar 9.407880e-01 0.000000e+00 0.000000e+00
1
Step 372000
Ar 9.440673e-01 0.000000e+00 0.000000e+00
1
Step 373000
Ar 9.469622e-01 0.000000e+00 0.000000e+00
1
Step 374000
Ar 9.660710e-01 0.000000e+00 0.000000e+00
1
Step 375000
Ar 9.417443e-01 0.000000e+00 0.000000e+00
1
Step 376000
Ar 8.321165e-01 0.000000e+00 0.000000e+00
1
Step 377000
Ar 8.353784e-01 0.000000e+00 0.000000e+00
1
Step 378000
Ar 8.380922e-01 0.000000e+00 0.000000e+00
1
Step 379000
Ar 9.336331e-01 0.000000e+00 0.000000e+00
1
Step 380000
Ar 9.035258e-01 0.000000e+00 0.000000e+00
1
Step 381000
Ar 9.154396e-01 0.000000e+00 0.000000e+00
1
Step 382000
Ar 1.018728e+00 0.000000e+00 0.000000e+00
1
Step 383000
Ar 1.024900e+00 0.000000e+00 0.000000e+00
1
Step 384000
Ar 2.813930e-01 0.000000e+00 0.000000e+00
1
Step 385000
Ar 1.030611e+00 0.000000e+00 0.000000e+00
1
Step 386000
Ar 9.393056e-01 0.000000e+00 0.000000e+00
1
Step 387000
Ar 7.595792e-01 0.000000e+00 0.000000e+00
1
Step 388000
Ar 9.608693e-01 0.000000e+00 0.000000e+00
1
Step 389000
Ar 9.656909e-01 0.000000e+00 0.000000e+00
1
Step 390000
Ar 9.181237e-01 0.000000e+00 0.000000e+00
1
Step 391000
Ar 9.853041e-01 0.000000e+00 0.000000e+00
1
Step 392000
Ar 7.844333e-01 0.000000e+00 0.000000e+00
1
Step 393000
Ar 1.170649e+00 0.000000e+00 0.000000e+00
1
Step 394000
Ar 1.166043e+00 0.000000e+00 0.000000e+00
1
Step 395000
Ar 9.632243e-01 0.000000e+00 0.000000e+00
1
Step 396000
Ar 1.036098e+00 0.000000e+00 0.000000e+00
1
Step 397000
Ar 7.293282e-01 0.000000e+00 0.000000e+00
1
Step 398000
Ar 7.353487e-01 0.000000e+00 0.000000e+00
1
Step 399000
Ar 7.390087e-01 0.000000e+00 0.000000e+00
1
Step 400000
Ar 7.330427e-01 0.000000e+00 0.000000e+00
1
Step 401000
Ar 9.325816e-01 0.000000e+00 0.000000e+00
1
Step 402000
Ar 9.585057e-01 0.000000e+00 0.000000e+00
1
Step 403000
Ar 1.152462e+00 0.000000e+00 0.000000e+00
1
Step 404000
Ar 1.163957e+00 0.000000e+00 0.000000e+00
1
Step 405000
Ar 1.165415e+00 0.000000e+00 0.000000e+00
1
Step 406000
Ar 9.104753e-01 0.000000e+00 0.000000e+00
1
Step 407000
Ar 9.149359e-01 0.000000e+00 0.000000e+00
1
Step 408000
Ar 9.674575e-01 0.000000e+00 0.000000e+00
1
Step 409000
Ar 8.095966e-01 0.000000e+00 0.000000e+00
1
Step 410000
Ar 1.014685e+00 0.000000e+00 0.000000e+00
1
Step 411000
Ar 1.025022e+00 0.000000e+00 0.000000e+00
1
Step 412000
Ar 1.137422e+00 0.000000e+00 0.000000e+00
1
Step 413000
Ar 7.052872e-01 0.000000e+00 0.000000e+00
1
Step 414000
Ar 1.191229e+00 0.000000e+00 0.000000e+00
1
Step 415000
Ar 9.554773e-01 0.000000e+00 0.000000e+00
1
Step 416000
Ar 1.048096e+00 0.000000e+00 0.000000e+00
1
Step 417000
Ar 8.874630e-01 0.000000e+00 0.000000e+00
1
Step 418000
Ar 1.118898e+00 0.000000e+00 0.000000e+00
1
Step 419000
Ar 7.657254e-01 0.000000e+00 0.000000e+00
1
Step 420000
Ar 1.073084e+00 0.000000e+00 0.000000e+00
1
Step 421000
Ar 9.354388e-01 0.000000e+00 0.000000e+00
1
Step 422000
Ar 1.251489e+00 0.000000e+00 0.000000e+00
1
Step 423000
Ar 9.357543e-01 0.000000e+00 0.000000e+00
1
Step 424000
Ar 9.334752e-01 0.000000e+00 0.000000e+00
1
Step 425000
Ar 9.348344e-01 0.000000e+00 0.000000e+00
1
Step 426000
Ar 7.355694e-01 0.000000e+00 0.000000e+00
1
Step 427000
Ar 8.955420e-01 0.000000e+00 0.000000e+00
1
Step 428000
Ar 9.959204e-01 0.000000e+00 0.000000e+00
1
Step 429000
Ar 7.913410e-01 0.000000e+00 0.000000e+00
1
Step 430000
Ar 9.183220e-01 0.000000e+00 0.000000e+00
1
Step 431000
Ar 9.763380e-01 0.000000e+00 0.000000e+00
1
Step 432000
Ar 8.070830e-01 0.000000e+00 0.000000e+00
1
Step 433000
Ar 7.487414e-01 0.000000e+00 0.000000e+00
1
Step 434000
Ar 1.119141e+00 0.000000e+00 0.000000e+00
1
Step 435000
Ar 5.173609e-01 0.000000e+00 0.000000e+00
1
Step 436000
Ar 1.081459e+00 0.000000e+00 0.000000e+00
1
Step 437000
Ar 4.509604e-01 0.000000e+00 0.000000e+00
1
Step 438000
Ar 8.600227e-01 0.000000e+00 0.000000e+00
1
Step 439000
Ar 1.103944e+00 0.000000e+00 0.000000e+00
1
Step 440000
Ar 1.093183e+00 0.000000e+00 0.000000e+00
1
Step 441000
Ar 1.088608e+00 0.000000e+00 0.000000e+00
1
Step 442000
Ar 1.084739e+00 0.000000e+00 0.000000e+00
1
Step 443000
Ar 1.085697e+00 0.000000e+00 0.000000e+00
1
Step 444000
Ar 1.086473e+00 0.000000e+00 0.000000e+00
1
Step 445000
Ar 1.084596e+00 0.000000e+00 0.000000e+00
1
Step 446000
Ar 1.024306e+00 0.000000e+00 0.000000e+00
1
Step 447000
Ar 9.631801e-01 0.000000e+00 0.000000e+00
1
Step 448000
Ar 1.155428e+00 0.000000e+00 0.000000e+00
1
Step 449000
Ar 9.682747e-01 0.000000e+00 0.000000e+00
1
Step 450000
Ar 1.202184e+00 0.000000e+00 0.000000e+00
1
Step 451000
Ar 9.227477e-01 0.000000e+00 0.000000e+00
1
Step 452000
Ar 8.865480e-01 0.000000e+00 0.000000e+00
1
Step 453000
Ar 1.264197e+00 0.000000e+00 0.000000e+00
1
Step 454000
Ar 9.848836e-01 0.000000e+00 0.000000e+00
1
Step 455000
Ar 1.130423e+00 0.000000e+00 0.000000e+00
1
Step 456000
Ar 9.140092e-01 0.000000e+00 0.000000e+00
1
Step 457000
Ar 6.470950e-01 0.000000e+00 0.000000e+00
1
Step 458000
Ar 1.024233e+00 0.000000e+00 0.000000e+00
1
Step 459000
Ar 9.231579e-01 0.000000e+00 0.000000e+00
1
Step 460000
Ar 1.021364e+00 0.000000e+00 0.000000e+00
1
Step 461000
Ar 1.171804e+00 0.000000e+00 0.000000e+00
1
Step 462000
Ar 1.059055e+00 0.000000e+00 0.000000e+00
1
Step 463000
Ar 9.632775e-01 0.000000e+00 0.000000e+00
1
Step 464000
Ar 1.134770e+00 0.000000e+00 0.000000e+00
1
Step 465000
Ar 9.686895e-01 0.000000e+00 0.000000e+00
1
Step 466000
Ar 7.663646e-01 0.000000e+00 0.000000e+00
1
Step 467000
Ar 8.868281e-01 0.000000e+00 0.000000e+00
1
Step 468000
Ar 1.009687e+00 0.000000e+00 0.000000e+00
1
Step 469000
Ar 9.875593e-01 0.000000e+00 0.000000e+00
1
Step 470000
Ar 8.588399e-01 0.000000e+00 0.000000e+00
1
Step 471000
Ar 1.210145e+00 0.000000e+00 0.000000e+00
1
Step 472000
Ar 9.319876e-01 0.000000e+00 0.000000e+00
1
Step 473000
Ar 1.050123e+00 0.000000e+00 0.000000e+00
1
Step 474000
Ar 1.064901e+00 0.000000e+00 0.000000e+00
1
Step 475000
Ar -9.857228e-01 0.000000e+00 0.000000e+00
1
Step 476000
Ar -1.007226e+00 0.000000e+00 0.000000e+00
1
Step 477000
Ar -1.000518e+00 0.000000e+00 0.000000e+00
1
Step 478000
Ar -1.003982e+00 0.000000e+00 0.000000e+00
1
Step 479000
Ar -9.969473e-01 0.000000e+00 0.000000e+00
1
Step 480000
Ar -1.005739e+00 0.000000e+00 0.000000e+00
1
Step 481000
Ar -1.015987e+00 0.000000e+00 0.000000e+00
1
Step 482000
Ar -1.020403e+00 0.000000e+00 0.000000e+00
1
Step 483000
Ar -1.021761e+00 0.000000e+00 0.000000e+00
1
Step 484000
Ar -1.023401e+00 0.000000e+00 0.000000e+00
1
Step 485000
Ar -1.020773e+00 0.000000e+00 0.000000e+00
1
Step 486000
Ar -1.031028e+00 0.000000e+00 0.000000e+00
1
Step 487000
Ar -1.043051e+00 0.000000e+00 0.000000e+00
1
Step 488000
Ar -1.035545e+00 0.000000e+00 0.000000e+00
1
Step 489000
Ar -1.033010e+00 0.000000e+00 0.000000e+00
1
Step 490000
Ar -1.037636e+00 0.000000e+00 0.000000e+00
1
Step 491000
Ar -9.660637e-01 0.000000e+00 0.000000e+00
1
Step 492000
Ar -9.724772e-01 0.000000e+00 0.000000e+00
1
Step 493000
Ar -9.710969e-01 0.000000e+00 0.000000e+00
1
Step 494000
Ar -9.715960e-01 0.000000e+00 0.000000e+00
1
Step 495000
Ar -9.734723e-01 0.000000e+00 0.000000e+00
1
Step 496000
Ar -9.596137e-01 0.000000e+00 0.000000e+00
1
Step 497000
Ar -9.643906e-01 0.000000e+00 0.000000e+00
1
Step 498000
Ar -9.634641e-01 0.000000e+00 0.000000e+00
1
Step 499000
Ar -9.523510e-01 0.000000e+00 0.000000e+00
1
Step 500000
Ar -9.550673e-01 0.000000e+00 0.000000e+00
1
Step 501000
Ar -1.055350e+00 0.000000e+00 0.000000e+00
1
Step 502000
Ar -1.052502e+00 0.000000e+00 0.000000e+00
1
Step 503000
Ar -1.051867e+00 0.000000e+00 0.000000e+00
1
Step 504000
Ar -1.056534e+00 0.000000e+00 0.000000e+00
1
Step 505000
Ar -1.049699e+00 0.000000e+00 0.000000e+00
1
Step 506000
Ar -9.415488e-01 0.000000e+00 0.000000e+00
1
Step 507000
Ar -9.411255e-01 0.000000e+00 0.000000e+00
1
Step 508000
Ar -9.457222e-01 0.000000e+00 0.000000e+00
1
Step 509000
Ar -9.365778e-01 0.000000e+00 0.000000e+00
1
Step 510000
Ar -9.454223e-01 0.000000e+00 0.000000e+00
1
Step 511000
Ar -9.619525e-01 0.000000e+00 0.000000e+00
1
Step 512000
Ar -9.324190e-01 0.000000e+00 0.000000e+00
1
Step 513000
Ar -9.356956e-01 0.000000e+00 0.000000e+00
1
Step 514000
Ar -9.370463e-01 0.000000e+00 0.000000e+00
1
Step 515000
Ar -9.304021e-01 0.000000e+00 0.000000e+00
1
Step 516000
Ar -9.184429e-01 0.000000e+00 0.000000e+00
1
Step 517000
Ar -9.187967e-01 0.000000e+00 0.000000e+00
1
Step 518000
Ar -9.216527e-01 0.000000e+00 0.000000e+00
1
Step 519000
Ar -9.184667e-01 0.000000e+00 0.000000e+00
1
Step 520000
Ar -9.229893e-01 0.000000e+00 0.000000e+00
1
Step 521000
Ar -9.114431e-01 0.000000e+00 0.000000e+00
1
Step 522000
Ar -9.120949e-01 0.000000e+00 0.000000e+00
1
Step 523000
Ar -9.134151e-01 0.000000e+00 0.000000e+00
1
Step 524000
Ar -9.074407e-01 0.000000e+00 0.000000e+00
1
Step 525000
Ar -9.105693e-01 0.000000e+00 0.000000e+00
1
Step 526000
Ar -1.063212e+00 0.000000e+00 0.000000e+00
1
Step 527000
Ar -1.075470e+00 0.000000e+00 0.000000e+00
1
Step 528000
Ar -1.060110e+00 0.000000e+00 0.000000e+00
1
Step 529000
Ar -1.057339e+00 0.000000e+00 0.000000e+00
1
Step 530000
Ar -1.062325e+00 0.000000e+00 0.000000e+00
1
Step 531000
Ar -1.010203e+00 0.000000e+00 0.000000e+00
1
Step 532000
Ar -1.072575e+00 0.000000e+00 0.000000e+00
1
Step 533000
Ar -1.074008e+00 0.000000e+00 0.000000e+00
1
Step 534000
Ar -1.073957e+00 0.000000e+00 0.000000e+00
1
Step 535000
Ar -1.073937e+00 0.000000e+00 0.000000e+00
1
Step 536000
Ar -1.083008e+00 0.000000e+00 0.000000e+00
1
Step 537000
Ar -1.085066e+00 0.000000e+00 0.000000e+00
1
Step 538000
Ar -1.082422e+00 0.000000e+00 0.000000e+00
1
Step 539000
Ar -1.085189e+00 0.000000e+00 0.000000e+00
1
Step 540000
Ar -1.084402e+00 0.000000e+00 0.000000e+00
1
Step 541000
Ar -1.008950e+00 0.000000e+00 0.000000e+00
1
Step 542000
Ar -9.000306e-01 0.000000e+00 0.000000e+00
1
Step 543000
Ar -9.011015e-01 0.000000e+00 0.000000e+00
1
Step 544000
Ar -9.006963e-01 0.000000e+00 0.000000e+00
1
Step 545000
Ar -9.144195e-01 0.000000e+00 0.000000e+00
1
Step 546000
Ar -9.277984e-01 0.000000e+00 0.000000e+00
1
Step 547000
Ar -8.997426e-01 0.000000e+00 0.000000e+00
1
Step 548000
Ar -8.977519e-01 0.000000e+00 0.000000e+00
1
Step 549000
Ar -8.976089e-01 0.000000e+00 0.000000e+00
1
Step 550000
Ar -8.973576e-01 0.000000e+00 0.000000e+00
1
Step 551000
Ar -1.055167e+00 0.000000e+00 0.000000e+00
1
Step 552000
Ar -1.029363e+00 0.000000e+00 0.000000e+00
1
Step 553000
Ar -1.094009e+00 0.000000e+00 0.000000e+00
1
Step 554000
Ar -1.096338e+00 0.000000e+00 0.000000e+00
1
Step 555000
Ar -1.094334e+00 0.000000e+00 0.000000e+00
1
Step 556000
Ar -1.027858e+00 0.000000e+00 0.000000e+00
1
Step 557000
Ar -1.008479e+00 0.000000e+00 0.000000e+00
1
Step 558000
Ar -9.026930e-01 0.000000e+00 0.000000e+00
1
Step 559000
Ar -9.732719e-01 0.000000e+00 0.000000e+00
1
Step 560000
Ar -9.683085e-01 0.000000e+00 0.000000e+00
1
Step 561000
Ar -1.010801e+00 0.000000e+00 0.000000e+00
1
Step 562000
Ar -1.014202e+00 0.000000e+00 0.000000e+00
1
Step 563000
Ar -9.969237e-01 0.000000e+00 0.000000e+00
1
Step 564000
Ar -1.031062e+00 0.000000e+00 0.000000e+00
1
Step 565000
Ar -8.676144e-01 0.000000e+00 0.000000e+00
1
Step 566000
Ar -1.035290e+00 0.000000e+00 0.000000e+00
1
Step 567000
Ar -1.014922e+00 0.000000e+00 0.000000e+00
1
Step 568000
Ar -9.979899e-01 0.000000e+00 0.000000e+00
1
Step 569000
Ar -9.951901e-01 0.000000e+00 0.000000e+00
1
Step 570000
Ar -9.981306e-01 0.000000e+00 0.000000e+00
1
Step 571000
Ar -1.016044e+00 0.000000e+00 0.000000e+00
1
Step 572000
Ar -8.822094e-01 0.000000e+00 0.000000e+00
1
Step 573000
Ar -1.101501e+00 0.000000e+00 0.000000e+00
1
Step 574000
Ar -1.104357e+00 0.000000e+00 0.000000e+00
1
Step 575000
Ar -8.852684e-01 0.000000e+00 0.000000e+00
1
Step 576000
Ar -1.076478e+00 0.000000e+00 0.000000e+00
1
Step 577000
Ar -9.733968e-01 0.000000e+00 0.000000e+00
1
Step 578000
Ar -1.018579e+00 0.000000e+00 0.000000e+00
1
Step 579000
Ar -1.016838e+00 0.000000e+00 0.000000e+00
1
Step 580000
Ar -1.012825e+00 0.000000e+00 0.000000e+00
1
Step 581000
Ar -1.051888e+00 0.000000e+00 0.000000e+00
1
Step 582000
Ar -9.908944e-01 0.000000e+00 0.000000e+00
1
Step 583000
Ar -9.928864e-01 0.000000e+00 0.000000e+00
1
Step 584000
Ar -9.132074e-01 0.000000e+00 0.000000e+00
1
Step 585000
Ar -9.617082e-01 0.000000e+00 0.000000e+00
1
Step 586000
Ar -9.768119e-01 0.000000e+00 0.000000e+00
1
Step 587000
Ar -1.051012e+00 0.000000e+00 0.000000e+00
1
Step 588000
Ar -9.788903e-01 0.000000e+00 0.000000e+00
1
Step 589000
Ar -1.022655e+00 0.000000e+00 0.000000e+00
1
Step 590000
Ar -9.949512e-01 0.000000e+00 0.000000e+00
1
Step 591000
Ar -9.060330e-01 0.000000e+00 0.000000e+00
1
Step 592000
Ar -9.376815e-01 0.000000e+00 0.000000e+00
1
Step 593000
Ar -1.038868e+00 0.000000e+00 0.000000e+00
1
Step 594000
Ar -9.408376e-01 0.000000e+00 0.000000e+00
1
Step 595000
Ar -9.449065e-01 0.000000e+00 0.000000e+00
1
Step 596000
Ar -9.531915e-01 0.000000e+00 0.000000e+00
1
Step 597000
Ar -9.663539e-01 0.000000e+00 0.000000e+00
1
Step 598000
Ar -1.021549e+00 0.000000e+00 0.000000e+00
1
Step 599000
Ar -9.783665e-01 0.000000e+00 0.000000e+00
1
Step 600000
Ar -1.019975e+00 0.000000e+00 0.000000e+00
1
Step 601000
Ar -1.055317e+00 0.000000e+00 0.000000e+00
1
Step 602000
Ar -9.781450e-01 0.000000e+00 0.000000e+00
1
Step 603000
Ar -1.006375e+00 0.000000e+00 0.000000e+00
1
Step 604000
Ar -1.003518e+00 0.000000e+00 0.000000e+00
1
Step 605000
Ar -1.031071e+00 0.000000e+00 0.000000e+00
1
Step 606000
Ar -9.151370e-01 0.000000e+00 0.000000e+00
1
Step 607000
Ar -1.050813e+00 0.000000e+00 0.000000e+00
1
Step 608000
Ar -1.041603e+00 0.000000e+00 0.000000e+00
1
Step 609000
Ar -1.104571e+00 0.000000e+00 0.000000e+00
1
Step 610000
Ar -1.103950e+00 0.000000e+00 0.000000e+00
1
Step 611000
Ar -1.087440e+00 0.000000e+00 0.000000e+00
1
Step 612000
Ar -1.042020e+00 0.000000e+00 0.000000e+00
1
Step 613000
Ar -1.044336e+00 0.000000e+00 0.000000e+00
1
Step 614000
Ar -1.045030e+00 0.000000e+00 0.000000e+00
1
Step 615000
Ar -1.056864e+00 0.000000e+00 0.000000e+00
1
Step 616000
Ar -1.042238e+00 0.000000e+00 0.000000e+00
1
Step 617000
Ar -7.864194e-01 0.000000e+00 0.000000e+00
1
Step 618000
Ar -1.109098e+00 0.000000e+00 0.000000e+00
1
Step 619000
Ar -9.634002e-01 0.000000e+00 0.000000e+00
1
Step 620000
Ar -8.314590e-01 0.000000e+00 0.000000e+00
1
Step 621000
Ar -1.005415e+00 0.000000e+00 0.000000e+00
1
Step 622000
Ar -1.003928e+00 0.000000e+00 0.000000e+00
1
Step 623000
Ar -1.004739e+00 0.000000e+00 0.000000e+00
1
Step 624000
Ar -9.730531e-01 0.000000e+00 0.000000e+00
1
Step 625000
Ar -8.700290e-01 0.000000e+00 0.000000e+00
1
Step 626000
Ar -9.256077e-01 0.000000e+00 0.000000e+00
1
Step 627000
Ar -8.640149e-01 0.000000e+00 0.000000e+00
1
Step 628000
Ar -7.436467e-01 0.000000e+00 0.000000e+00
1
Step 629000
Ar -1.042993e+00 0.000000e+00 0.000000e+00
1
Step 630000
Ar -1.082076e+00 0.000000e+00 0.000000e+00
1
Step 631000
Ar -1.182983e+00 0.000000e+00 0.000000e+00
1
Step 632000
Ar -1.275263e+00 0.000000e+00 0.000000e+00
1
Step 633000
Ar -9.349578e-01 0.000000e+00 0.000000e+00
1
Step 634000
Ar -7.753602e-01 0.000000e+00 0.000000e+00
1
Step 635000
Ar -1.024722e+00 0.000000e+00 0.000000e+00
1
Step 636000
Ar -1.040449e+00 0.000000e+00 0.000000e+00
1
Step 637000
Ar -9.596507e-01 0.000000e+00 0.000000e+00
1
Step 638000
Ar -1.065281e+00 0.000000e+00 0.000000e+00
1
Step 639000
Ar -9.781563e-01 0.000000e+00 0.000000e+00
1
Step 640000
Ar -1.017926e+00 0.000000e+00 0.000000e+00
1
Step 641000
Ar -9.954346e-01 0.000000e+00 0.000000e+00
1
Step 642000
Ar -1.006184e+00 0.000000e+00 0.000000e+00
1
Step 643000
Ar -8.563535e-01 0.000000e+00 0.000000e+00
1
Step 644000
Ar -8.587111e-01 0.000000e+00 0.000000e+00
1
Step 645000
Ar -8.556970e-01 0.000000e+00 0.000000e+00
1
Step 646000
Ar -1.103173e+00 0.000000e+00 0.000000e+00
1
Step 647000
Ar -1.113533e+00 0.000000e+00 0.000000e+00
1
Step 648000
Ar -1.112756e+00 0.000000e+00 0.000000e+00
1
Step 649000
Ar -9.853277e-01 0.000000e+00 0.000000e+00
1
Step 650000
Ar -7.394110e-01 0.000000e+00 0.000000e+00
1
Step 651000
Ar -9.975644e-01 0.000000e+00 0.000000e+00
1
Step 652000