1
Step 120000
Ar 1.015257e+00 0.000000e+00 0.000000e+00
1
Step 121000
Ar 1.021376e+00 0.000000e+00 0.000000e+00
1
Step 122000
Ar 1.000119e+00 0.000000e+00 0.000000e+00
1
Step 123000
Ar 1.015462e+00 0.000000e+00 0.000000e+00
1
Step 124000
Ar 9.917861e-01 0.000000e+00 0.000000e+00
1
Step 125000
Ar 1.007585e+00 0.000000e+00 0.000000e+00
1
Step 126000
Ar 9.861546e-01 0.000000e+00 0.000000e+00
1
Step 127000
Ar 9.862569e-01 0.000000e+00 0.000000e+00
1
Step 128000
Ar 9.934687e-01 0.000000e+00 0.000000e+00
1
Step 129000
Ar 9.855700e-01 0.000000e+00 0.000000e+00
1
Step 130000
Ar 9.902801e-01 0.000000e+00 0.000000e+00
1
Step 131000
Ar 9.811378e-01 0.000000e+00 0.000000e+00
1
Step 132000
Ar 9.761484e-01 0.000000e+00 0.000000e+00
1
Step 133000
Ar 9.784531e-01 0.000000e+00 0.000000e+00
1
Step 134000
Ar 9.698152e-01 0.000000e+00 0.000000e+00
1
Step 135000
Ar 9.747824e-01 0.000000e+00 0.000000e+00
1
Step 136000
Ar 9.602148e-01 0.000000e+00 0.000000e+00
1
Step 137000
Ar 9.608951e-01 0.000000e+00 0.000000e+00
1
Step 138000
Ar 9.657976e-01 0.000000e+00 0.000000e+00
1
Step 139000
Ar 9.548623e-01 0.000000e+00 0.000000e+00
1
Step 140000
Ar 9.578875e-01 0.000000e+00 0.000000e+00
1
Step 141000
Ar 1.029465e+00 0.000000e+00 0.000000e+00
1
Step 142000
Ar 1.032846e+00 0.000000e+00 0.000000e+00
1
Step 143000
Ar 1.025299e+00 0.000000e+00 0.000000e+00
1
Step 144000
Ar 1.022170e+00 0.000000e+00 0.000000e+00
1
Step 145000
Ar 1.020926e+00 0.000000e+00 0.000000e+00
1
Step 146000
Ar 1.017940e+00 0.000000e+00 0.000000e+00
1
Step 147000
Ar 1.030675e+00 0.000000e+00 0.000000e+00
1
Step 148000
Ar 1.028331e+00 0.000000e+00 0.000000e+00
1
Step 149000
Ar 1.031448e+00 0.000000e+00 0.000000e+00
1
Step 150000
Ar 1.033375e+00 0.000000e+00 0.000000e+00
1
Step 151000
Ar 1.045219e+00 0.000000e+00 0.000000e+00
1
Step 152000
Ar 1.042278e+00 0.000000e+00 0.000000e+00
1
Step 153000
Ar 1.049726e+00 0.000000e+00 0.000000e+00
1
Step 154000
Ar 1.050283e+00 0.000000e+00 0.000000e+00
1
Step 155000
Ar 1.045946e+00 0.000000e+00 0.000000e+00
1
Step 156000
Ar 1.057851e+00 0.000000e+00 0.000000e+00
1
Step 157000
Ar 1.055177e+00 0.000000e+00 0.000000e+00
1
Step 158000
Ar 1.061306e+00 0.000000e+00 0.000000e+00
1
Step 159000
Ar 1.058853e+00 0.000000e+00 0.000000e+00
1
Step 160000
Ar 1.056369e+00 0.000000e+00 0.000000e+00
1
Step 161000
Ar 9.804089e-01 0.000000e+00 0.000000e+00
1
Step 162000
Ar 9.408764e-01 0.000000e+00 0.000000e+00
1
Step 163000
Ar 9.399966e-01 0.000000e+00 0.000000e+00
1
Step 164000
Ar 9.461781e-01 0.000000e+00 0.000000e+00
1
Step 165000
Ar 9.505579e-01 0.000000e+00 0.000000e+00
1
Step 166000
Ar 9.385707e-01 0.000000e+00 0.000000e+00
1
Step 167000
Ar 9.399154e-01 0.000000e+00 0.000000e+00
1
Step 168000
Ar 9.376211e-01 0.000000e+00 0.000000e+00
1
Step 169000
Ar 9.406679e-01 0.000000e+00 0.000000e+00
1
Step 170000
Ar 9.395374e-01 0.000000e+00 0.000000e+00
1
Step 171000
Ar 9.235788e-01 0.000000e+00 0.000000e+00
1
Step 172000
Ar 9.222902e-01 0.000000e+00 0.000000e+00
1
Step 173000
Ar 9.341181e-01 0.000000e+00 0.000000e+00
1
Step 174000
Ar 9.338458e-01 0.000000e+00 0.000000e+00
1
Step 175000
Ar 9.301959e-01 0.000000e+00 0.000000e+00
1
Step 176000
Ar 9.191478e-01 0.000000e+00 0.000000e+00
1
Step 177000
Ar 9.149560e-01 0.000000e+00 0.000000e+00
1
Step 178000
Ar 9.212723e-01 0.000000e+00 0.000000e+00
1
Step 179000
Ar 9.171531e-01 0.000000e+00 0.000000e+00
1
Step 180000
Ar 9.192421e-01 0.000000e+00 0.000000e+00
1
Step 181000
Ar 1.027265e+00 0.000000e+00 0.000000e+00
1
Step 182000
Ar 1.001632e+00 0.000000e+00 0.000000e+00
1
Step 183000
Ar 9.067759e-01 0.000000e+00 0.000000e+00
1
Step 184000
Ar 9.113906e-01 0.000000e+00 0.000000e+00
1
Step 185000
Ar 9.085783e-01 0.000000e+00 0.000000e+00
1
Step 186000
Ar 1.061565e+00 0.000000e+00 0.000000e+00
1
Step 187000
Ar 1.067327e+00 0.000000e+00 0.000000e+00
1
Step 188000
Ar 1.072548e+00 0.000000e+00 0.000000e+00
1
Step 189000
Ar 1.065762e+00 0.000000e+00 0.000000e+00
1
Step 190000
Ar 1.068269e+00 0.000000e+00 0.000000e+00
1
Step 191000
Ar 1.117173e+00 0.000000e+00 0.000000e+00
1
Step 192000
Ar 9.783783e-01 0.000000e+00 0.000000e+00
1
Step 193000
Ar 1.122894e+00 0.000000e+00 0.000000e+00
1
Step 194000
Ar 9.647625e-01 0.000000e+00 0.000000e+00
1
Step 195000
Ar 9.830507e-01 0.000000e+00 0.000000e+00
1
Step 196000
Ar 1.122820e+00 0.000000e+00 0.000000e+00
1
Step 197000
Ar 1.043763e+00 0.000000e+00 0.000000e+00
1
Step 198000
Ar 9.032612e-01 0.000000e+00 0.000000e+00
1
Step 199000
Ar 8.950519e-01 0.000000e+00 0.000000e+00
1
Step 200000
Ar 1.003682e+00 0.000000e+00 0.000000e+00
1
Step 201000
Ar 9.552346e-01 0.000000e+00 0.000000e+00
1
Step 202000
Ar 1.081892e+00 0.000000e+00 0.000000e+00
1
Step 203000
Ar 1.075781e+00 0.000000e+00 0.000000e+00
1
Step 204000
Ar 1.076553e+00 0.000000e+00 0.000000e+00
1
Step 205000
Ar 1.082612e+00 0.000000e+00 0.000000e+00
1
Step 206000
Ar 8.725187e-01 0.000000e+00 0.000000e+00
1
Step 207000
Ar 8.215140e-01 0.000000e+00 0.000000e+00
1
Step 208000
Ar 8.980560e-01 0.000000e+00 0.000000e+00
1
Step 209000
Ar 8.999046e-01 0.000000e+00 0.000000e+00
1
Step 210000
Ar 8.979643e-01 0.000000e+00 0.000000e+00
1
Step 211000
Ar 1.018096e+00 0.000000e+00 0.000000e+00
1
Step 212000
Ar 9.578818e-01 0.000000e+00 0.000000e+00
1
Step 213000
Ar 8.865342e-01 0.000000e+00 0.000000e+00
1
Step 214000
Ar 8.846462e-01 0.000000e+00 0.000000e+00
1
Step 215000
Ar 9.854160e-01 0.000000e+00 0.000000e+00
1
Step 216000
Ar 8.097279e-01 0.000000e+00 0.000000e+00
1
Step 217000
Ar 1.094856e+00 0.000000e+00 0.000000e+00
1
Step 218000
Ar 8.908129e-01 0.000000e+00 0.000000e+00
1
Step 219000
Ar 8.891304e-01 0.000000e+00 0.000000e+00
1
Step 220000
Ar 8.807824e-01 0.000000e+00 0.000000e+00
1
Step 221000
Ar 1.114003e+00 0.000000e+00 0.000000e+00
1
Step 222000
Ar 1.037366e+00 0.000000e+00 0.000000e+00
1
Step 223000
Ar 1.076942e+00 0.000000e+00 0.000000e+00
1
Step 224000
Ar 9.678384e-01 0.000000e+00 0.000000e+00
1
Step 225000
Ar 8.784444e-01 0.000000e+00 0.000000e+00
1
Step 226000
Ar 1.122928e+00 0.000000e+00 0.000000e+00
1
Step 227000
Ar 1.136355e+00 0.000000e+00 0.000000e+00
1
Step 228000
Ar 1.132896e+00 0.000000e+00 0.000000e+00
1
Step 229000
Ar 1.159017e+00 0.000000e+00 0.000000e+00
1
Step 230000
Ar 1.042833e+00 0.000000e+00 0.000000e+00
1
Step 231000
Ar 9.675366e-01 0.000000e+00 0.000000e+00
1
Step 232000
Ar 1.019007e+00 0.000000e+00 0.000000e+00
1
Step 233000
Ar 9.461860e-01 0.000000e+00 0.000000e+00
1
Step 234000
Ar 8.088962e-01 0.000000e+00 0.000000e+00
1
Step 235000
Ar 1.094544e+00 0.000000e+00 0.000000e+00
1
Step 236000
Ar 1.050978e+00 0.000000e+00 0.000000e+00
1
Step 237000
Ar 1.056289e+00 0.000000e+00 0.000000e+00
1
Step 238000
Ar 1.016929e+00 0.000000e+00 0.000000e+00
1
Step 239000
Ar 9.840734e-01 0.000000e+00 0.000000e+00
1
Step 240000
Ar 1.062251e+00 0.000000e+00 0.000000e+00
1
Step 241000
Ar 1.080908e+00 0.000000e+00 0.000000e+00
1
Step 242000
Ar 9.899602e-01 0.000000e+00 0.000000e+00
1
Step 243000
Ar 1.155581e+00 0.000000e+00 0.000000e+00
1
Step 244000
Ar 8.658941e-01 0.000000e+00 0.000000e+00
1
Step 245000
Ar 8.674594e-01 0.000000e+00 0.000000e+00
1
Step 246000
Ar 1.020175e+00 0.000000e+00 0.000000e+00
1
Step 247000
Ar 9.489377e-01 0.000000e+00 0.000000e+00
1
Step 248000
Ar 1.100566e+00 0.000000e+00 0.000000e+00
1
Step 249000
Ar 1.069418e+00 0.000000e+00 0.000000e+00
1
Step 250000
Ar 7.783846e-01 0.000000e+00 0.000000e+00
1
Step 251000
Ar 9.494399e-01 0.000000e+00 0.000000e+00
1
Step 252000
Ar 1.102941e+00 0.000000e+00 0.000000e+00
1
Step 253000
Ar 1.100794e+00 0.000000e+00 0.000000e+00
1
Step 254000
Ar 1.105336e+00 0.000000e+00 0.000000e+00
1
Step 255000
Ar 1.070379e+00 0.000000e+00 0.000000e+00
1
Step 256000
Ar 1.180628e+00 0.000000e+00 0.000000e+00
1
Step 257000
Ar 1.097373e+00 0.000000e+00 0.000000e+00
1
Step 258000
Ar 1.105403e+00 0.000000e+00 0.000000e+00
1
Step 259000
Ar 1.088411e+00 0.000000e+00 0.000000e+00
1
Step 260000
Ar 8.508774e-01 0.000000e+00 0.000000e+00
1
Step 261000
Ar 9.701597e-01 0.000000e+00 0.000000e+00
1
Step 262000
Ar 9.866981e-01 0.000000e+00 0.000000e+00
1
Step 263000
Ar 9.527067e-01 0.000000e+00 0.000000e+00
1
Step 264000
Ar 1.103875e+00 0.000000e+00 0.000000e+00
1
Step 265000
Ar 1.105256e+00 0.000000e+00 0.000000e+00
1
Step 266000
Ar 1.102379e+00 0.000000e+00 0.000000e+00
1
Step 267000
Ar 9.842267e-01 0.000000e+00 0.000000e+00
1
Step 268000
Ar 1.005558e+00 0.000000e+00 0.000000e+00
1
Step 269000
Ar 9.471679e-01 0.000000e+00 0.000000e+00
1
Step 270000
Ar 1.083047e+00 0.000000e+00 0.000000e+00
1
Step 271000
Ar 1.119334e+00 0.000000e+00 0.000000e+00
1
Step 272000
Ar 8.716300e-01 0.000000e+00 0.000000e+00
1
Step 273000
Ar 8.922676e-01 0.000000e+00 0.000000e+00
1
Step 274000
Ar 8.492635e-01 0.000000e+00 0.000000e+00
1
Step 275000
Ar 1.088963e+00 0.000000e+00 0.000000e+00
1
Step 276000
Ar 1.114787e+00 0.000000e+00 0.000000e+00
1
Step 277000
Ar 1.112806e+00 0.000000e+00 0.000000e+00
1
Step 278000
Ar 1.099439e+00 0.000000e+00 0.000000e+00
1
Step 279000
Ar 1.098492e+00 0.000000e+00 0.000000e+00
1
Step 280000
Ar 1.100998e+00 0.000000e+00 0.000000e+00
1
Step 281000
Ar 8.668816e-01 0.000000e+00 0.000000e+00
1
Step 282000
Ar 7.567086e-01 0.000000e+00 0.000000e+00
1
Step 283000
Ar 1.154736e+00 0.000000e+00 0.000000e+00
1
Step 284000
Ar 1.021517e+00 0.000000e+00 0.000000e+00
1
Step 285000
Ar 8.874201e-01 0.000000e+00 0.000000e+00
1
Step 286000
Ar 8.598863e-01 0.000000e+00 0.000000e+00
1
Step 287000
Ar 8.701304e-01 0.000000e+00 0.000000e+00
1
Step 288000
Ar 8.658152e-01 0.000000e+00 0.000000e+00
1
Step 289000
Ar 1.098831e+00 0.000000e+00 0.000000e+00
1
Step 290000
Ar 1.100548e+00 0.000000e+00 0.000000e+00
1
Step 291000
Ar 9.753598e-01 0.000000e+00 0.000000e+00
1
Step 292000
Ar 1.077303e+00 0.000000e+00 0.000000e+00
1
Step 293000
Ar 1.269788e+00 0.000000e+00 0.000000e+00
1
Step 294000
Ar 1.119505e+00 0.000000e+00 0.000000e+00
1
Step 295000
Ar 1.115212e+00 0.000000e+00 0.000000e+00
1
Step 296000
Ar 1.122963e+00 0.000000e+00 0.000000e+00
1
Step 297000
Ar 1.122674e+00 0.000000e+00 0.000000e+00
1
Step 298000
Ar 1.124426e+00 0.000000e+00 0.000000e+00
1
Step 299000
Ar 1.122236e+00 0.000000e+00 0.000000e+00
1
Step 300000
Ar 1.121880e+00 0.000000e+00 0.000000e+00
1
Step 301000
Ar 9.971024e-01 0.000000e+00 0.000000e+00
1
Step 302000
Ar 1.097700e+00 0.000000e+00 0.000000e+00
1
Step 303000
Ar 9.976737e-01 0.000000e+00 0.000000e+00
1
Step 304000
Ar 9.695423e-01 0.000000e+00 0.000000e+00
1
Step 305000
Ar 1.014558e+00 0.000000e+00 0.000000e+00
1
Step 306000
Ar 1.031597e+00 0.000000e+00 0.000000e+00
1
Step 307000
Ar 9.519190e-01 0.000000e+00 0.000000e+00
1
Step 308000
Ar 1.023432e+00 0.000000e+00 0.000000e+00
1
Step 309000
Ar 9.591949e-01 0.000000e+00 0.000000e+00
1
Step 310000
Ar 9.707508e-01 0.000000e+00 0.000000e+00
1
Step 311000
Ar 1.050636e+00 0.000000e+00 0.000000e+00
1
Step 312000
Ar 1.134981e+00 0.000000e+00 0.000000e+00
1
Step 313000
Ar 9.956922e-01 0.000000e+00 0.000000e+00
1
Step 314000
Ar 1.170321e+00 0.000000e+00 0.000000e+00
1
Step 315000
Ar 1.230790e+00 0.000000e+00 0.000000e+00
1
Step 316000
Ar 9.620677e-01 0.000000e+00 0.000000e+00
1
Step 317000
Ar 1.028764e+00 0.000000e+00 0.000000e+00
1
Step 318000
Ar 1.108507e+00 0.000000e+00 0.000000e+00
1
Step 319000
Ar 1.131772e+00 0.000000e+00 0.000000e+00
1
Step 320000
Ar 1.044511e+00 0.000000e+00 0.000000e+00
1
Step 321000
Ar 9.651578e-01 0.000000e+00 0.000000e+00
1
Step 322000
Ar 9.920442e-01 0.000000e+00 0.000000e+00
1
Step 323000
Ar 9.750807e-01 0.000000e+00 0.000000e+00
1
Step 324000
Ar 1.027283e+00 0.000000e+00 0.000000e+00
1
Step 325000
Ar 1.028081e+00 0.000000e+00 0.000000e+00
1
Step 326000
Ar 9.114322e-01 0.000000e+00 0.000000e+00
1
Step 327000
Ar 9.286337e-01 0.000000e+00 0.000000e+00
1
Step 328000
Ar 9.494103e-01 0.000000e+00 0.000000e+00
1
Step 329000
Ar 9.818430e-01 0.000000e+00 0.000000e+00
1
Step 330000
Ar 1.123247e+00 0.000000e+00 0.000000e+00
1
Step 331000
Ar 1.007523e+00 0.000000e+00 0.000000e+00
1
Step 332000
Ar 1.068317e+00 0.000000e+00 0.000000e+00
1
Step 333000
Ar 1.175523e+00 0.000000e+00 0.000000e+00
1
Step 334000
Ar 8.876562e-01 0.000000e+00 0.000000e+00
1
Step 335000
Ar 1.229288e+00 0.000000e+00 0.000000e+00
1
Step 336000
Ar -9.661097e-01 0.000000e+00 0.000000e+00
1
Step 337000
Ar -1.014643e+00 0.000000e+00 0.000000e+00
1
Step 338000
Ar -1.013450e+00 0.000000e+00 0.000000e+00
1
Step 339000
Ar -9.973434e-01 0.000000e+00 0.000000e+00
1
Step 340000
Ar -1.001842e+00 0.000000e+00 0.000000e+00
1
Step 341000
Ar -1.017130e+00 0.000000e+00 0.000000e+00
1
Step 342000
Ar -1.016273e+00 0.000000e+00 0.000000e+00
1
Step 343000
Ar -1.030835e+00 0.000000e+00 0.000000e+00
1
Step 344000
Ar -1.019456e+00 0.000000e+00 0.000000e+00
1
Step 345000
Ar -1.022784e+00 0.000000e+00 0.000000e+00
1
Step 346000
Ar -9.852020e-01 0.000000e+00 0.000000e+00
1
Step 347000
Ar -9.803492e-01 0.000000e+00 0.000000e+00
1
Step 348000
Ar -9.758867e-01 0.000000e+00 0.000000e+00
1
Step 349000
Ar -9.828778e-01 0.000000e+00 0.000000e+00
1
Step 350000
Ar -9.768786e-01 0.000000e+00 0.000000e+00
1
Step 351000
Ar -9.684689e-01 0.000000e+00 0.000000e+00
1
Step 352000
Ar -9.530013e-01 0.000000e+00 0.000000e+00
1
Step 353000
Ar -9.631545e-01 0.000000e+00 0.000000e+00
1
Step 354000
Ar -9.660150e-01 0.000000e+00 0.000000e+00
1
Step 355000
Ar -9.656514e-01 0.000000e+00 0.000000e+00
1
Step 356000
Ar -1.031975e+00 0.000000e+00 0.000000e+00
1
Step 357000
Ar -1.033978e+00 0.000000e+00 0.000000e+00
1
Step 358000
Ar -1.035866e+00 0.000000e+00 0.000000e+00
1
Step 359000
Ar -1.035110e+00 0.000000e+00 0.000000e+00
1
Step 360000
Ar -1.039733e+00 0.000000e+00 0.000000e+00
1
Step 361000
Ar -1.056299e+00 0.000000e+00 0.000000e+00
1
Step 362000
Ar -1.051646e+00 0.000000e+00 0.000000e+00
1
Step 363000
Ar -1.053983e+00 0.000000e+00 0.000000e+00
1
Step 364000
Ar -1.051029e+00 0.000000e+00 0.000000e+00
1
Step 365000
Ar -1.047727e+00 0.000000e+00 0.000000e+00
1
Step 366000
Ar -1.013027e+00 0.000000e+00 0.000000e+00
1
Step 367000
Ar -1.013757e+00 0.000000e+00 0.000000e+00
1
Step 368000
Ar -1.013213e+00 0.000000e+00 0.000000e+00
1
Step 369000
Ar -1.015541e+00 0.000000e+00 0.000000e+00
1
Step 370000
Ar -1.012303e+00 0.000000e+00 0.000000e+00
1
Step 371000
Ar -9.921857e-01 0.000000e+00 0.000000e+00
1
Step 372000
Ar -9.857605e-01 0.000000e+00 0.000000e+00
1
Step 373000
Ar -9.888112e-01 0.000000e+00 0.000000e+00
1
Step 374000
Ar -9.907931e-01 0.000000e+00 0.000000e+00
1
Step 375000
Ar -9.886890e-01 0.000000e+00 0.000000e+00
1
Step 376000
Ar -9.524870e-01 0.000000e+00 0.000000e+00
1
Step 377000
Ar -9.538341e-01 0.000000e+00 0.000000e+00
1
Step 378000
Ar -9.496254e-01 0.000000e+00 0.000000e+00
1
Step 379000
Ar -9.534146e-01 0.000000e+00 0.000000e+00
1
Step 380000
Ar -9.502007e-01 0.000000e+00 0.000000e+00
1
Step 381000
Ar -9.981578e-01 0.000000e+00 0.000000e+00
1
Step 382000
Ar -1.070224e+00 0.000000e+00 0.000000e+00
1
Step 383000
Ar -9.974196e-01 0.000000e+00 0.000000e+00
1
Step 384000
Ar -9.889106e-01 0.000000e+00 0.000000e+00
1
Step 385000
Ar -9.364796e-01 0.000000e+00 0.000000e+00
1
Step 386000
Ar -9.289574e-01 0.000000e+00 0.000000e+00
1
Step 387000
Ar -9.188937e-01 0.000000e+00 0.000000e+00
1
Step 388000
Ar -9.280613e-01 0.000000e+00 0.000000e+00
1
Step 389000
Ar -9.250774e-01 0.000000e+00 0.000000e+00
1
Step 390000
Ar -9.222926e-01 0.000000e+00 0.000000e+00
1
Step 391000
Ar -9.567225e-01 0.000000e+00 0.000000e+00
1
Step 392000
Ar -9.141642e-01 0.000000e+00 0.000000e+00
1
Step 393000
Ar -9.087626e-01 0.000000e+00 0.000000e+00
1
Step 394000
Ar -9.134883e-01 0.000000e+00 0.000000e+00
1
Step 395000
Ar -9.125042e-01 0.000000e+00 0.000000e+00
1
Step 396000
Ar -9.036412e-01 0.000000e+00 0.000000e+00
1
Step 397000
Ar -9.038976e-01 0.000000e+00 0.000000e+00
1
Step 398000
Ar -9.018326e-01 0.000000e+00 0.000000e+00
1
Step 399000
Ar -9.014866e-01 0.000000e+00 0.000000e+00
1
Step 400000
Ar -9.032771e-01 0.000000e+00 0.000000e+00
1
Step 401000
Ar -1.055698e+00 0.000000e+00 0.000000e+00
1
Step 402000
Ar -1.060188e+00 0.000000e+00 0.000000e+00
1
Step 403000
Ar -1.057074e+00 0.000000e+00 0.000000e+00
1
Step 404000
Ar -1.068072e+00 0.000000e+00 0.000000e+00
1
Step 405000
Ar -1.059619e+00 0.000000e+00 0.000000e+00
1
Step 406000
Ar -9.561195e-01 0.000000e+00 0.000000e+00
1
Step 407000
Ar -9.961410e-01 0.000000e+00 0.000000e+00
1
Step 408000
Ar -9.938649e-01 0.000000e+00 0.000000e+00
1
Step 409000
Ar -1.088617e+00 0.000000e+00 0.000000e+00
1
Step 410000
Ar -9.963413e-01 0.000000e+00 0.000000e+00
1
Step 411000
Ar -9.836666e-01 0.000000e+00 0.000000e+00
1
Step 412000
Ar -9.710450e-01 0.000000e+00 0.000000e+00
1
Step 413000
Ar -1.048085e+00 0.000000e+00 0.000000e+00
1
Step 414000
Ar -1.027643e+00 0.000000e+00 0.000000e+00
1
Step 415000
Ar -1.070843e+00 0.000000e+00 0.000000e+00
1
Step 416000
Ar -9.764618e-01 0.000000e+00 0.000000e+00
1
Step 417000
Ar -9.702606e-01 0.000000e+00 0.000000e+00
1
Step 418000
Ar -9.598681e-01 0.000000e+00 0.000000e+00
1
Step 419000
Ar -1.015517e+00 0.000000e+00 0.000000e+00
1
Step 420000
Ar -9.829959e-01 0.000000e+00 0.000000e+00
1
Step 421000
Ar -1.086165e+00 0.000000e+00 0.000000e+00
1
Step 422000
Ar -1.080178e+00 0.000000e+00 0.000000e+00
1
Step 423000
Ar -1.078747e+00 0.000000e+00 0.000000e+00
1
Step 424000
Ar -1.081234e+00 0.000000e+00 0.000000e+00
1
Step 425000
Ar -1.081371e+00 0.000000e+00 0.000000e+00
1
Step 426000
Ar -9.751298e-01 0.000000e+00 0.000000e+00
1
Step 427000
Ar -8.958755e-01 0.000000e+00 0.000000e+00
1
Step 428000
Ar -8.903885e-01 0.000000e+00 0.000000e+00
1
Step 429000
Ar -8.936060e-01 0.000000e+00 0.000000e+00
1
Step 430000
Ar -8.913886e-01 0.000000e+00 0.000000e+00
1
Step 431000
Ar -8.814954e-01 0.000000e+00 0.000000e+00
1
Step 432000
Ar -8.861283e-01 0.000000e+00 0.000000e+00
1
Step 433000
Ar -8.821145e-01 0.000000e+00 0.000000e+00
1
Step 434000
Ar -8.789172e-01 0.000000e+00 0.000000e+00
1
Step 435000
Ar -8.770593e-01 0.000000e+00 0.000000e+00
1
Step 436000
Ar -9.689475e-01 0.000000e+00 0.000000e+00
1
Step 437000
Ar -9.063554e-01 0.000000e+00 0.000000e+00
1
Step 438000
Ar -1.033415e+00 0.000000e+00 0.000000e+00
1
Step 439000
Ar -1.088575e+00 0.000000e+00 0.000000e+00
1
Step 440000
Ar -1.094802e+00 0.000000e+00 0.000000e+00
1
Step 441000
Ar -8.864518e-01 0.000000e+00 0.000000e+00
1
Step 442000
Ar -1.052195e+00 0.000000e+00 0.000000e+00
1
Step 443000
Ar -1.026072e+00 0.000000e+00 0.000000e+00
1
Step 444000
Ar -1.052669e+00 0.000000e+00 0.000000e+00
1
Step 445000
Ar -1.030132e+00 0.000000e+00 0.000000e+00
1
Step 446000
Ar -1.009937e+00 0.000000e+00 0.000000e+00
1
Step 447000
Ar -1.011761e+00 0.000000e+00 0.000000e+00
1
Step 448000
Ar -1.011740e+00 0.000000e+00 0.000000e+00
1
Step 449000
Ar -1.011668e+00 0.000000e+00 0.000000e+00
1
Step 450000
Ar -1.009991e+00 0.000000e+00 0.000000e+00
1
Step 451000
Ar -1.024253e+00 0.000000e+00 0.000000e+00
1
Step 452000
Ar -1.051231e+00 0.000000e+00 0.000000e+00
1
Step 453000
Ar -9.773916e-01 0.000000e+00 0.000000e+00
1
Step 454000
Ar -9.916914e-01 0.000000e+00 0.000000e+00
1
Step 455000
Ar -9.918023e-01 0.000000e+00 0.000000e+00
1
Step 456000
Ar -9.687361e-01 0.000000e+00 0.000000e+00
1
Step 457000
Ar -9.584367e-01 0.000000e+00 0.000000e+00
1
Step 458000
Ar -9.573676e-01 0.000000e+00 0.000000e+00
1
Step 459000
Ar -9.593249e-01 0.000000e+00 0.000000e+00
1
Step 460000
Ar -1.039184e+00 0.000000e+00 0.000000e+00
1
Step 461000
Ar -8.701471e-01 0.000000e+00 0.000000e+00
1
Step 462000
Ar -8.663455e-01 0.000000e+00 0.000000e+00
1
Step 463000
Ar -8.664858e-01 0.000000e+00 0.000000e+00
1
Step 464000
Ar -9.700179e-01 0.000000e+00 0.000000e+00
1
Step 465000
Ar -1.021119e+00 0.000000e+00 0.000000e+00
1
Step 466000
Ar -8.225352e-01 0.000000e+00 0.000000e+00
1
Step 467000
Ar -8.858521e-01 0.000000e+00 0.000000e+00
1
Step 468000
Ar -9.593546e-01 0.000000e+00 0.000000e+00
1
Step 469000
Ar -1.003494e+00 0.000000e+00 0.000000e+00
1
Step 470000
Ar -1.005352e+00 0.000000e+00 0.000000e+00
1
Step 471000
Ar -1.052618e+00 0.000000e+00 0.000000e+00
1
Step 472000
Ar -1.052332e+00 0.000000e+00 0.000000e+00
1
Step 473000
Ar -1.051712e+00 0.000000e+00 0.000000e+00
1
Step 474000
Ar -1.049498e+00 0.000000e+00 0.000000e+00
1
Step 475000
Ar -1.050615e+00 0.000000e+00 0.000000e+00
1
Step 476000
Ar -1.059316e+00 0.000000e+00 0.000000e+00
1
Step 477000
Ar -1.061051e+00 0.000000e+00 0.000000e+00
1
Step 478000
Ar -1.064774e+00 0.000000e+00 0.000000e+00
1
Step 479000
Ar -1.066307e+00 0.000000e+00 0.000000e+00
1
Step 480000
Ar -1.062573e+00 0.000000e+00 0.000000e+00
1
Step 481000
Ar -1.074028e+00 0.000000e+00 0.000000e+00
1
Step 482000
Ar -1.073427e+00 0.000000e+00 0.000000e+00
1
Step 483000
Ar -1.074271e+00 0.000000e+00 0.000000e+00
1
Step 484000
Ar -1.069053e+00 0.000000e+00 0.000000e+00
1
Step 485000
Ar -1.073386e+00 0.000000e+00 0.000000e+00
1
Step 486000
Ar -9.553319e-01 0.000000e+00 0.000000e+00
1
Step 487000
Ar -9.594972e-01 0.000000e+00 0.000000e+00
1
Step 488000
Ar -1.055251e+00 0.000000e+00 0.000000e+00
1
Step 489000
Ar -9.980216e-01 0.000000e+00 0.000000e+00
1
Step 490000
Ar -1.089458e+00 0.000000e+00 0.000000e+00
1
Step 491000
Ar -9.767346e-01 0.000000e+00 0.000000e+00
1
Step 492000
Ar -1.104948e+00 0.000000e+00 0.000000e+00
1
Step 493000
Ar -1.103365e+00 0.000000e+00 0.000000e+00
1
Step 494000
Ar -1.102660e+00 0.000000e+00 0.000000e+00
1
Step 495000
Ar -1.105735e+00 0.000000e+00 0.000000e+00
1
Step 496000
Ar -9.932441e-01 0.000000e+00 0.000000e+00
1
Step 497000
Ar -1.031060e+00 0.000000e+00 0.000000e+00
1
Step 498000
Ar -1.130500e+00 0.000000e+00 0.000000e+00
1
Step 499000
Ar -1.087673e+00 0.000000e+00 0.000000e+00
1
Step 500000
Ar -8.678806e-01 0.000000e+00 0.000000e+00
1
Step 501000
Ar -1.021570e+00 0.000000e+00 0.000000e+00
1
Step 502000
Ar -9.447924e-01 0.000000e+00 0.000000e+00
1
Step 503000
Ar -8.655999e-01 0.000000e+00 0.000000e+00
1
Step 504000
Ar -9.377833e-01 0.000000e+00 0.000000e+00
1
Step 505000
Ar -8.765258e-01 0.000000e+00 0.000000e+00
1
Step 506000
Ar -9.222943e-01 0.000000e+00 0.000000e+00
1
Step 507000
Ar -9.583618e-01 0.000000e+00 0.000000e+00
1
Step 508000
Ar -1.090580e+00 0.000000e+00 0.000000e+00
1
Step 509000
Ar -9.611843e-01 0.000000e+00 0.000000e+00
1
Step 510000
Ar -1.109211e+00 0.000000e+00 0.000000e+00
1
Step 511000
Ar -9.553776e-01 0.000000e+00 0.000000e+00
1
Step 512000
Ar -1.088486e+00 0.000000e+00 0.000000e+00
1
Step 513000
Ar -1.122723e+00 0.000000e+00 0.000000e+00
1
Step 514000
Ar -1.119642e+00 0.000000e+00 0.000000e+00
1
Step 515000
Ar -8.109315e-01 0.000000e+00 0.000000e+00
1
Step 516000
Ar -8.023736e-01 0.000000e+00 0.000000e+00
1
Step 517000
Ar -1.020680e+00 0.000000e+00 0.000000e+00
1
Step 518000
Ar -9.616835e-01 0.000000e+00 0.000000e+00
1
Step 519000
Ar -8.549717e-01 0.000000e+00 0.000000e+00
1
Step 520000
Ar -8.584107e-01 0.000000e+00 0.000000e+00
1
Step 521000
Ar -7.795823e-01 0.000000e+00 0.000000e+00
1
Step 522000
Ar -1.011799e+00 0.000000e+00 0.000000e+00
1
Step 523000
Ar -9.612221e-01 0.000000e+00 0.000000e+00
1
Step 524000
Ar -1.031117e+00 0.000000e+00 0.000000e+00
1
Step 525000
Ar -9.435579e-01 0.000000e+00 0.000000e+00
1
Step 526000
Ar -1.020275e+00 0.000000e+00 0.000000e+00
1
Step 527000
Ar -9.560590e-01 0.000000e+00 0.000000e+00
1
Step 528000
Ar -1.051273e+00 0.000000e+00 0.000000e+00
1
Step 529000
Ar -1.009425e+00 0.000000e+00 0.000000e+00
1
Step 530000
Ar -1.030792e+00 0.000000e+00 0.000000e+00
1
Step 531000
Ar -1.006086e+00 0.000000e+00 0.000000e+00
1
Step 532000
Ar -1.027227e+00 0.000000e+00 0.000000e+00
1
Step 533000
Ar -1.140606e+00 0.000000e+00 0.000000e+00
1
Step 534000
Ar -7.628081e-01 0.000000e+00 0.000000e+00
1
Step 535000
Ar -8.559964e-01 0.000000e+00 0.000000e+00
1
Step 536000
Ar -9.556981e-01 0.000000e+00 0.000000e+00
1
Step 537000
Ar -9.033613e-01 0.000000e+00 0.000000e+00
1
Step 538000
Ar -1.080905e+00 0.000000e+00 0.000000e+00
1
Step 539000
Ar -8.646443e-01 0.000000e+00 0.000000e+00
1
Step 540000
Ar -1.048710e+00 0.000000e+00 0.000000e+00
1
Step 541000
Ar -9.381980e-01 0.000000e+00 0.000000e+00
1
Step 542000
Ar -1.004625e+00 0.000000e+00 0.000000e+00
1
Step 543000
Ar -7.771802e-01 0.000000e+00 0.000000e+00
1
Step 544000
Ar -9.628451e-01 0.000000e+00 0.000000e+00
1
Step 545000
Ar -9.115887e-01 0.000000e+00 0.000000e+00
1
Step 546000
Ar -9.427595e-01 0.000000e+00 0.000000e+00
1
Step 547000
Ar -1.093755e+00 0.000000e+00 0.000000e+00
1
Step 548000
Ar -9.294180e-01 0.000000e+00 0.000000e+00
1
Step 549000
Ar -9.321332e-01 0.000000e+00 0.000000e+00
1
Step 550000
Ar -9.609173e-01 0.000000e+00 0.000000e+00
1
Step 551000
Ar -1.020454e+00 0.000000e+00 0.000000e+00
1
Step 552000
Ar -8.859952e-01 0.000000e+00 0.000000e+00
1
Step 553000
Ar -9.024148e-01 0.000000e+00 0.000000e+00
1
Step 554000
Ar -9.762622e-01 0.000000e+00 0.000000e+00
1
Step 555000
Ar -8.961770e-01 0.000000e+00 0.000000e+00
1
Step 556000
Ar -1.090546e+00 0.000000e+00 0.000000e+00
1
Step 557000
Ar -8.898886e-01 0.000000e+00 0.000000e+00
1
Step 558000
Ar -1.128837e+00 0.000000e+00 0.000000e+00
1
Step 559000
Ar -1.239947e+00 0.000000e+00 0.000000e+00
1
Step 560000
Ar -8.479246e-01 0.000000e+00 0.000000e+00
1
Step 561000
Ar -8.387353e-01 0.000000e+00 0.000000e+00
1
Step 562000
Ar -8.382737e-01 0.000000e+00 0.000000e+00
1
Step 563000
Ar -8.416360e-01 0.000000e+00 0.000000e+00
1
Step 564000
Ar -8.396110e-01 0.000000e+00 0.000000e+00
1
Step 565000
Ar -8.396462e-01 0.000000e+00 0.000000e+00
1
Step 566000
Ar -1.141532e+00 0.000000e+00 0.000000e+00
1
Step 567000
Ar -7.329009e-01 0.000000e+00 0.000000e+00
1
Step 568000
Ar -8.805953e-01 0.000000e+00 0.000000e+00
1
Step 569000
Ar -1.019028e+00 0.000000e+00 0.000000e+00
1
Step 570000
Ar -7.352451e-01 0.000000e+00 0.000000e+00
1
Step 571000
Ar -9.756856e-01 0.000000e+00 0.000000e+00
1
Step 572000
Ar -1.033989e+00 0.000000e+00 0.000000e+00
1
Step 573000
Ar -8.287781e-01 0.000000e+00 0.000000e+00
1
Step 574000
Ar -8.284829e-01 0.000000e+00 0.000000e+00
1
Step 575000
Ar -8.277720e-01 0.000000e+00 0.000000e+00
1
Step 576000
Ar -8.714905e-01 0.000000e+00 0.000000e+00
1
Step 577000
Ar -9.750008e-01 0.000000e+00 0.000000e+00
1
Step 578000
Ar -1.116906e+00 0.000000e+00 0.000000e+00
1
Step 579000
Ar -1.121319e+00 0.000000e+00 0.000000e+00
1
Step 580000
Ar -1.122635e+00 0.000000e+00 0.000000e+00
1
Step 581000
Ar -6.240664e-01 0.000000e+00 0.000000e+00
1
Step 582000
Ar -1.081718e+00 0.000000e+00 0.000000e+00
1
Step 583000
Ar -9.001076e-01 0.000000e+00 0.000000e+00
1
Step 584000
Ar -1.024438e+00 0.000000e+00 0.000000e+00
1
Step 585000
Ar -1.278833e+00 0.000000e+00 0.000000e+00
1
Step 586000
Ar -1.030137e+00 0.000000e+00 0.000000e+00
1
Step 587000
Ar -1.079342e+00 0.000000e+00 0.000000e+00
1
Step 588000
Ar -1.075639e+00 0.000000e+00 0.000000e+00
1
Step 589000
Ar -1.197050e+00 0.000000e+00 0.000000e+00
1
Step 590000
Ar -9.619839e-01 0.000000e+00 0.000000e+00
1
Step 591000
Ar -8.294801e-01 0.000000e+00 0.000000e+00
1
Step 592000
Ar -1.058278e+00 0.000000e+00 0.000000e+00
1
Step 593000
Ar -9.068362e-01 0.000000e+00 0.000000e+00
1
Step 594000
Ar -9.308695e-01 0.000000e+00 0.000000e+00
1
Step 595000
Ar -9.489047e-01 0.000000e+00 0.000000e+00
1
Step 596000
Ar -8.795990e-01 0.000000e+00 0.000000e+00
1
Step 597000
Ar -9.314664e-01 0.000000e+00 0.000000e+00
1
Step 598000
Ar -9.238550e-01 0.000000e+00 0.000000e+00
1
Step 599000
Ar -1.056591e+00 0.000000e+00 0.000000e+00
1
Step 600000
Ar -1.108307e+00 0.000000e+00 0.000000e+00
1
Step 601000
Ar -1.112299e+00 0.000000e+00 0.000000e+00
1
Step 602000
Ar -1.177956e+00 0.000000e+00 0.000000e+00
1
Step 603000
Ar -1.152632e+00 0.000000e+00 0.000000e+00
1
Step 604000
Ar -1.019197e+00 0.000000e+00 0.000000e+00
1
Step 605000
Ar -1.065642e+00 0.000000e+00 0.000000e+00
1
Step 606000
Ar -1.134546e+00 0.000000e+00 0.000000e+00
1
Step 607000
Ar -8.530484e-01 0.000000e+00 0.000000e+00
1
Step 608000
Ar -8.181818e-01 0.000000e+00 0.000000e+00
1
Step 609000
Ar -1.037586e+00 0.000000e+00 0.000000e+00
1
Step 610000
Ar -8.189998e-01 0.000000e+00 0.000000e+00
1
Step 611000
Ar -1.037403e+00 0.000000e+00 0.000000e+00
1
Step 612000
Ar -7.950603e-01 0.000000e+00 0.000000e+00
1
Step 613000
Ar -1.082364e+00 0.000000e+00 0.000000e+00
1
Step 614000
Ar -1.078073e+00 0.000000e+00 0.000000e+00
1
Step 615000
Ar -1.080228e+00 0.000000e+00 0.000000e+00
1
Step 616000
Ar -9.842079e-01 0.000000e+00 0.000000e+00
1
Step 617000
Ar -1.088654e+00 0.000000e+00 0.000000e+00
1
Step 618000
Ar -7.889804e-01 0.000000e+00 0.000000e+00
1
Step 619000
Ar -1.121075e+00 0.000000e+00 0.000000e+00
1
Step 620000
Ar -7.018230e-01 0.000000e+00 0.000000e+00
1
Step 621000
Ar -9.651806e-01 0.000000e+00 0.000000e+00
1
Step 622000
Ar -4.234354e-01 0.000000e+00 0.000000e+00
1
Step 623000
Ar -9.089128e-01 0.000000e+00 0.000000e+00
1
Step 624000
Ar -1.091673e+00 0.000000e+00 0.000000e+00
1
Step 625000
Ar -8.891894e-01 0.000000e+00 0.000000e+00
1
Step 626000
Ar -9.223449e-01 0.000000e+00 0.000000e+00
1
Step 627000
Ar -1.053613e+00 0.000000e+00 0.000000e+00
1
Step 628000
Ar -9.736931e-01 0.000000e+00 0.000000e+00
1
Step 629000
Ar -7.974564e-01 0.000000e+00 0.000000e+00
1
Step 630000
Ar -8.042550e-01 0.000000e+00 0.000000e+00
1
Step 631000
Ar -7.998642e-01 0.000000e+00 0.000000e+00
1
Step 632000
Ar -7.910899e-01 0.000000e+00 0.000000e+00
1
Step 633000
Ar -9.691947e-01 0.000000e+00 0.000000e+00
1
Step 634000
Ar -8.211126e-01 0.000000e+00 0.000000e+00
1
Step 635000
Ar -9.305766e-01 0.000000e+00 0.000000e+00
1
Step 636000
Ar -7.883986e-01 0.000000e+00 0.000000e+00
1
Step 637000
Ar -1.044723e+00 0.000000e+00 0.000000e+00
1
Step 638000
Ar -7.935950e-01 0.000000e+00 0.000000e+00
1
Step 639000
Ar -7.955080e-01 0.000000e+00 0.000000e+00
1
Step 640000
Ar -7.975214e-01 0.000000e+00 0.000000e+00
1
Step 641000
Ar -8.569585e-01 0.000000e+00 0.000000e+00
1
Step 642000
Ar -1.135337e+00 0.000000e+00 0.000000e+00
1
Step 643000
Ar -1.045982e+00 0.000000e+00 0.000000e+00
1
Step 644000
Ar -9.292220e-01 0.000000e+00 0.000000e+00
1
Step 645000
Ar -7.901904e-01 0.000000e+00 0.000000e+00
1
Step 646000
Ar -7.821258e-01 0.000000e+00 0.000000e+00
1
Step 647000
Ar -7.819791e-01 0.000000e+00 0.000000e+00
1
Step 648000
Ar -7.803416e-01 0.000000e+00 0.000000e+00
1
Step 649000
Ar -9.804933e-01 0.000000e+00 0.000000e+00
1