1
Step 120000
Ar 9.926556e-01 0.000000e+00 0.000000e+00
1
Step 121000
Ar 1.015488e+00 0.000000e+00 0.000000e+00
1
Step 122000
Ar 1.034159e+00 0.000000e+00 0.000000e+00
1
Step 123000
Ar 1.005261e+00 0.000000e+00 0.000000e+00
1
Step 124000
Ar 1.008984e+00 0.000000e+00 0.000000e+00
1
Step 125000
Ar 1.000839e+00 0.000000e+00 0.000000e+00
1
Step 126000
Ar 9.882082e-01 0.000000e+00 0.000000e+00
1
Step 127000
Ar 9.827994e-01 0.000000e+00 0.000000e+00
1
Step 128000
Ar 9.709180e-01 0.000000e+00 0.000000e+00
1
Step 129000
Ar 9.758071e-01 0.000000e+00 0.000000e+00
1
Step 130000
Ar 9.749338e-01 0.000000e+00 0.000000e+00
1
Step 131000
Ar 9.733600e-01 0.000000e+00 0.000000e+00
1
Step 132000
Ar 9.553097e-01 0.000000e+00 0.000000e+00
1
Step 133000
Ar 9.617535e-01 0.000000e+00 0.000000e+00
1
Step 134000
Ar 9.558499e-01 0.000000e+00 0.000000e+00
1
Step 135000
Ar 9.602916e-01 0.000000e+00 0.000000e+00
1
Step 136000
Ar 9.567219e-01 0.000000e+00 0.000000e+00
1
Step 137000
Ar 9.603364e-01 0.000000e+00 0.000000e+00
1
Step 138000
Ar 9.596490e-01 0.000000e+00 0.000000e+00
1
Step 139000
Ar 9.575892e-01 0.000000e+00 0.000000e+00
1
Step 140000
Ar 9.590254e-01 0.000000e+00 0.000000e+00
1
Step 141000
Ar 9.609631e-01 0.000000e+00 0.000000e+00
1
Step 142000
Ar 9.547182e-01 0.000000e+00 0.000000e+00
1
Step 143000
Ar 1.020861e+00 0.000000e+00 0.000000e+00
1
Step 144000
Ar 1.034255e+00 0.000000e+00 0.000000e+00
1
Step 145000
Ar 1.026689e+00 0.000000e+00 0.000000e+00
1
Step 146000
Ar 1.020677e+00 0.000000e+00 0.000000e+00
1
Step 147000
Ar 1.021505e+00 0.000000e+00 0.000000e+00
1
Step 148000
Ar 1.024596e+00 0.000000e+00 0.000000e+00
1
Step 149000
Ar 1.023098e+00 0.000000e+00 0.000000e+00
1
Step 150000
Ar 1.021291e+00 0.000000e+00 0.000000e+00
1
Step 151000
Ar 1.019632e+00 0.000000e+00 0.000000e+00
1
Step 152000
Ar 1.027765e+00 0.000000e+00 0.000000e+00
1
Step 153000
Ar 1.019872e+00 0.000000e+00 0.000000e+00
1
Step 154000
Ar 1.030846e+00 0.000000e+00 0.000000e+00
1
Step 155000
Ar 1.037884e+00 0.000000e+00 0.000000e+00
1
Step 156000
Ar 1.034797e+00 0.000000e+00 0.000000e+00
1
Step 157000
Ar 1.037552e+00 0.000000e+00 0.000000e+00
1
Step 158000
Ar 1.044333e+00 0.000000e+00 0.000000e+00
1
Step 159000
Ar 1.049092e+00 0.000000e+00 0.000000e+00
1
Step 160000
Ar 1.049753e+00 0.000000e+00 0.000000e+00
1
Step 161000
Ar 1.047188e+00 0.000000e+00 0.000000e+00
1
Step 162000
Ar 1.046562e+00 0.000000e+00 0.000000e+00
1
Step 163000
Ar 1.047717e+00 0.000000e+00 0.000000e+00
1
Step 164000
Ar 1.049445e+00 0.000000e+00 0.000000e+00
1
Step 165000
Ar 1.048740e+00 0.000000e+00 0.000000e+00
1
Step 166000
Ar 1.046560e+00 0.000000e+00 0.000000e+00
1
Step 167000
Ar 1.045263e+00 0.000000e+00 0.000000e+00
1
Step 168000
Ar 1.051752e+00 0.000000e+00 0.000000e+00
1
Step 169000
Ar 1.044529e+00 0.000000e+00 0.000000e+00
1
Step 170000
Ar 1.044173e+00 0.000000e+00 0.000000e+00
1
Step 171000
Ar 1.045480e+00 0.000000e+00 0.000000e+00
1
Step 172000
Ar 1.046842e+00 0.000000e+00 0.000000e+00
1
Step 173000
Ar 1.052343e+00 0.000000e+00 0.000000e+00
1
Step 174000
Ar 1.047295e+00 0.000000e+00 0.000000e+00
1
Step 175000
Ar 1.047020e+00 0.000000e+00 0.000000e+00
1
Step 176000
Ar 9.391464e-01 0.000000e+00 0.000000e+00
1
Step 177000
Ar 9.381209e-01 0.000000e+00 0.000000e+00
1
Step 178000
Ar 9.325047e-01 0.000000e+00 0.000000e+00
1
Step 179000
Ar 9.348386e-01 0.000000e+00 0.000000e+00
1
Step 180000
Ar 9.278031e-01 0.000000e+00 0.000000e+00
1
Step 181000
Ar 9.275132e-01 0.000000e+00 0.000000e+00
1
Step 182000
Ar 9.208489e-01 0.000000e+00 0.000000e+00
1
Step 183000
Ar 9.255900e-01 0.000000e+00 0.000000e+00
1
Step 184000
Ar 9.261374e-01 0.000000e+00 0.000000e+00
1
Step 185000
Ar 1.042550e+00 0.000000e+00 0.000000e+00
1
Step 186000
Ar 1.045893e+00 0.000000e+00 0.000000e+00
1
Step 187000
Ar 1.053360e+00 0.000000e+00 0.000000e+00
1
Step 188000
Ar 1.049049e+00 0.000000e+00 0.000000e+00
1
Step 189000
Ar 1.051173e+00 0.000000e+00 0.000000e+00
1
Step 190000
Ar 1.048249e+00 0.000000e+00 0.000000e+00
1
Step 191000
Ar 1.045287e+00 0.000000e+00 0.000000e+00
1
Step 192000
Ar 1.045548e+00 0.000000e+00 0.000000e+00
1
Step 193000
Ar 9.408069e-01 0.000000e+00 0.000000e+00
1
Step 194000
Ar 1.068794e+00 0.000000e+00 0.000000e+00
1
Step 195000
Ar 1.058757e+00 0.000000e+00 0.000000e+00
1
Step 196000
Ar 1.059333e+00 0.000000e+00 0.000000e+00
1
Step 197000
Ar 1.056951e+00 0.000000e+00 0.000000e+00
1
Step 198000
Ar 1.061780e+00 0.000000e+00 0.000000e+00
1
Step 199000
Ar 1.061062e+00 0.000000e+00 0.000000e+00
1
Step 200000
Ar 9.920177e-01 0.000000e+00 0.000000e+00
1
Step 201000
Ar 8.723710e-01 0.000000e+00 0.000000e+00
1
Step 202000
Ar 9.960013e-01 0.000000e+00 0.000000e+00
1
Step 203000
Ar 9.933225e-01 0.000000e+00 0.000000e+00
1
Step 204000
Ar 1.021798e+00 0.000000e+00 0.000000e+00
1
Step 205000
Ar 1.069887e+00 0.000000e+00 0.000000e+00
1
Step 206000
Ar 1.075104e+00 0.000000e+00 0.000000e+00
1
Step 207000
Ar 1.069035e+00 0.000000e+00 0.000000e+00
1
Step 208000
Ar 1.068786e+00 0.000000e+00 0.000000e+00
1
Step 209000
Ar 1.067811e+00 0.000000e+00 0.000000e+00
1
Step 210000
Ar 1.066208e+00 0.000000e+00 0.000000e+00
1
Step 211000
Ar 1.067807e+00 0.000000e+00 0.000000e+00
1
Step 212000
Ar 1.068029e+00 0.000000e+00 0.000000e+00
1
Step 213000
Ar 1.073780e+00 0.000000e+00 0.000000e+00
1
Step 214000
Ar 1.074040e+00 0.000000e+00 0.000000e+00
1
Step 215000
Ar 1.084512e+00 0.000000e+00 0.000000e+00
1
Step 216000
Ar 1.026985e+00 0.000000e+00 0.000000e+00
1
Step 217000
Ar 1.094421e+00 0.000000e+00 0.000000e+00
1
Step 218000
Ar 1.100908e+00 0.000000e+00 0.000000e+00
1
Step 219000
Ar 1.016210e+00 0.000000e+00 0.000000e+00
1
Step 220000
Ar 1.048604e+00 0.000000e+00 0.000000e+00
1
Step 221000
Ar 1.029978e+00 0.000000e+00 0.000000e+00
1
Step 222000
Ar 1.026494e+00 0.000000e+00 0.000000e+00
1
Step 223000
Ar 1.027242e+00 0.000000e+00 0.000000e+00
1
Step 224000
Ar 1.026895e+00 0.000000e+00 0.000000e+00
1
Step 225000
Ar 1.053977e+00 0.000000e+00 0.000000e+00
1
Step 226000
Ar 9.177706e-01 0.000000e+00 0.000000e+00
1
Step 227000
Ar 9.054578e-01 0.000000e+00 0.000000e+00
1
Step 228000
Ar 9.036148e-01 0.000000e+00 0.000000e+00
1
Step 229000
Ar 9.087696e-01 0.000000e+00 0.000000e+00
1
Step 230000
Ar 8.975666e-01 0.000000e+00 0.000000e+00
1
Step 231000
Ar 9.030515e-01 0.000000e+00 0.000000e+00
1
Step 232000
Ar 9.014778e-01 0.000000e+00 0.000000e+00
1
Step 233000
Ar 9.007702e-01 0.000000e+00 0.000000e+00
1
Step 234000
Ar 9.004541e-01 0.000000e+00 0.000000e+00
1
Step 235000
Ar 8.976491e-01 0.000000e+00 0.000000e+00
1
Step 236000
Ar 9.046795e-01 0.000000e+00 0.000000e+00
1
Step 237000
Ar 8.973692e-01 0.000000e+00 0.000000e+00
1
Step 238000
Ar 9.012783e-01 0.000000e+00 0.000000e+00
1
Step 239000
Ar 8.951164e-01 0.000000e+00 0.000000e+00
1
Step 240000
Ar 9.034289e-01 0.000000e+00 0.000000e+00
1
Step 241000
Ar 9.017807e-01 0.000000e+00 0.000000e+00
1
Step 242000
Ar 9.016301e-01 0.000000e+00 0.000000e+00
1
Step 243000
Ar 9.018620e-01 0.000000e+00 0.000000e+00
1
Step 244000
Ar 9.024746e-01 0.000000e+00 0.000000e+00
1
Step 245000
Ar 8.981137e-01 0.000000e+00 0.000000e+00
1
Step 246000
Ar 8.942817e-01 0.000000e+00 0.000000e+00
1
Step 247000
Ar 8.940091e-01 0.000000e+00 0.000000e+00
1
Step 248000
Ar 8.887082e-01 0.000000e+00 0.000000e+00
1
Step 249000
Ar 8.825561e-01 0.000000e+00 0.000000e+00
1
Step 250000
Ar 8.851035e-01 0.000000e+00 0.000000e+00
1
Step 251000
Ar 8.827799e-01 0.000000e+00 0.000000e+00
1
Step 252000
Ar 8.831590e-01 0.000000e+00 0.000000e+00
1
Step 253000
Ar 8.820676e-01 0.000000e+00 0.000000e+00
1
Step 254000
Ar 9.801496e-01 0.000000e+00 0.000000e+00
1
Step 255000
Ar 1.105339e+00 0.000000e+00 0.000000e+00
1
Step 256000
Ar 1.035852e+00 0.000000e+00 0.000000e+00
1
Step 257000
Ar 9.311993e-01 0.000000e+00 0.000000e+00
1
Step 258000
Ar 1.036064e+00 0.000000e+00 0.000000e+00
1
Step 259000
Ar 9.922484e-01 0.000000e+00 0.000000e+00
1
Step 260000
Ar 1.049731e+00 0.000000e+00 0.000000e+00
1
Step 261000
Ar 9.768924e-01 0.000000e+00 0.000000e+00
1
Step 262000
Ar 1.105207e+00 0.000000e+00 0.000000e+00
1
Step 263000
Ar 9.716483e-01 0.000000e+00 0.000000e+00
1
Step 264000
Ar 1.100416e+00 0.000000e+00 0.000000e+00
1
Step 265000
Ar 1.000920e+00 0.000000e+00 0.000000e+00
1
Step 266000
Ar 1.100481e+00 0.000000e+00 0.000000e+00
1
Step 267000
Ar 1.053248e+00 0.000000e+00 0.000000e+00
1
Step 268000
Ar 9.910897e-01 0.000000e+00 0.000000e+00
1
Step 269000
Ar 9.764187e-01 0.000000e+00 0.000000e+00
1
Step 270000
Ar 9.654901e-01 0.000000e+00 0.000000e+00
1
Step 271000
Ar 8.765798e-01 0.000000e+00 0.000000e+00
1
Step 272000
Ar 9.054787e-01 0.000000e+00 0.000000e+00
1
Step 273000
Ar 9.576544e-01 0.000000e+00 0.000000e+00
1
Step 274000
Ar 1.099758e+00 0.000000e+00 0.000000e+00
1
Step 275000
Ar 1.052301e+00 0.000000e+00 0.000000e+00
1
Step 276000
Ar 1.080061e+00 0.000000e+00 0.000000e+00
1
Step 277000
Ar 1.059269e+00 0.000000e+00 0.000000e+00
1
Step 278000
Ar 9.765852e-01 0.000000e+00 0.000000e+00
1
Step 279000
Ar 1.056119e+00 0.000000e+00 0.000000e+00
1
Step 280000
Ar 1.060339e+00 0.000000e+00 0.000000e+00
1
Step 281000
Ar 1.056186e+00 0.000000e+00 0.000000e+00
1
Step 282000
Ar 1.057383e+00 0.000000e+00 0.000000e+00
1
Step 283000
Ar 9.573391e-01 0.000000e+00 0.000000e+00
1
Step 284000
Ar 9.853502e-01 0.000000e+00 0.000000e+00
1
Step 285000
Ar 9.873104e-01 0.000000e+00 0.000000e+00
1
Step 286000
Ar 1.160822e+00 0.000000e+00 0.000000e+00
1
Step 287000
Ar 1.100569e+00 0.000000e+00 0.000000e+00
1
Step 288000
Ar 1.104795e+00 0.000000e+00 0.000000e+00
1
Step 289000
Ar 9.714836e-01 0.000000e+00 0.000000e+00
1
Step 290000
Ar 1.077206e+00 0.000000e+00 0.000000e+00
1
Step 291000
Ar 1.070040e+00 0.000000e+00 0.000000e+00
1
Step 292000
Ar 1.071031e+00 0.000000e+00 0.000000e+00
1
Step 293000
Ar 9.856994e-01 0.000000e+00 0.000000e+00
1
Step 294000
Ar 9.842309e-01 0.000000e+00 0.000000e+00
1
Step 295000
Ar 8.484355e-01 0.000000e+00 0.000000e+00
1
Step 296000
Ar 9.775455e-01 0.000000e+00 0.000000e+00
1
Step 297000
Ar 1.089400e+00 0.000000e+00 0.000000e+00
1
Step 298000
Ar 1.004388e+00 0.000000e+00 0.000000e+00
1
Step 299000
Ar 9.982816e-01 0.000000e+00 0.000000e+00
1
Step 300000
Ar 1.013078e+00 0.000000e+00 0.000000e+00
1
Step 301000
Ar 9.186124e-01 0.000000e+00 0.000000e+00
1
Step 302000
Ar 9.950175e-01 0.000000e+00 0.000000e+00
1
Step 303000
Ar 1.001200e+00 0.000000e+00 0.000000e+00
1
Step 304000
Ar 9.652590e-01 0.000000e+00 0.000000e+00
1
Step 305000
Ar 1.003513e+00 0.000000e+00 0.000000e+00
1
Step 306000
Ar 9.833975e-01 0.000000e+00 0.000000e+00
1
Step 307000
Ar 8.123912e-01 0.000000e+00 0.000000e+00
1
Step 308000
Ar 9.587769e-01 0.000000e+00 0.000000e+00
1
Step 309000
Ar 9.228873e-01 0.000000e+00 0.000000e+00
1
Step 310000
Ar 1.143515e+00 0.000000e+00 0.000000e+00
1
Step 311000
Ar 8.750991e-01 0.000000e+00 0.000000e+00
1
Step 312000
Ar 1.078112e+00 0.000000e+00 0.000000e+00
1
Step 313000
Ar 1.086834e+00 0.000000e+00 0.000000e+00
1
Step 314000
Ar 7.381957e-01 0.000000e+00 0.000000e+00
1
Step 315000
Ar 9.289000e-01 0.000000e+00 0.000000e+00
1
Step 316000
Ar 9.447599e-01 0.000000e+00 0.000000e+00
1
Step 317000
Ar 9.481851e-01 0.000000e+00 0.000000e+00
1
Step 318000
Ar 9.451067e-01 0.000000e+00 0.000000e+00
1
Step 319000
Ar 1.058261e+00 0.000000e+00 0.000000e+00
1
Step 320000
Ar 1.003194e+00 0.000000e+00 0.000000e+00
1
Step 321000
Ar 9.551996e-01 0.000000e+00 0.000000e+00
1
Step 322000
Ar 9.533936e-01 0.000000e+00 0.000000e+00
1
Step 323000
Ar 1.105466e+00 0.000000e+00 0.000000e+00
1
Step 324000
Ar 1.102100e+00 0.000000e+00 0.000000e+00
1
Step 325000
Ar 1.101195e+00 0.000000e+00 0.000000e+00
1
Step 326000
Ar 9.183692e-01 0.000000e+00 0.000000e+00
1
Step 327000
Ar 8.395554e-01 0.000000e+00 0.000000e+00
1
Step 328000
Ar 1.036270e+00 0.000000e+00 0.000000e+00
1
Step 329000
Ar 9.471503e-01 0.000000e+00 0.000000e+00
1
Step 330000
Ar 9.879330e-01 0.000000e+00 0.000000e+00
1
Step 331000
Ar 9.384353e-01 0.000000e+00 0.000000e+00
1
Step 332000
Ar 9.537002e-01 0.000000e+00 0.000000e+00
1
Step 333000
Ar 1.131569e+00 0.000000e+00 0.000000e+00
1
Step 334000
Ar 1.085401e+00 0.000000e+00 0.000000e+00
1
Step 335000
Ar 1.102717e+00 0.000000e+00 0.000000e+00
1
Step 336000
Ar 1.096767e+00 0.000000e+00 0.000000e+00
1
Step 337000
Ar 1.081303e+00 0.000000e+00 0.000000e+00
1
Step 338000
Ar 1.085133e+00 0.000000e+00 0.000000e+00
1
Step 339000
Ar 1.082734e+00 0.000000e+00 0.000000e+00
1
Step 340000
Ar 8.751752e-01 0.000000e+00 0.000000e+00
1
Step 341000
Ar 8.741066e-01 0.000000e+00 0.000000e+00
1
Step 342000
Ar 8.740201e-01 0.000000e+00 0.000000e+00
1
Step 343000
Ar 8.733545e-01 0.000000e+00 0.000000e+00
1
Step 344000
Ar 8.742214e-01 0.000000e+00 0.000000e+00
1
Step 345000
Ar 8.699802e-01 0.000000e+00 0.000000e+00
1
Step 346000
Ar 8.727464e-01 0.000000e+00 0.000000e+00
1
Step 347000
Ar 8.765674e-01 0.000000e+00 0.000000e+00
1
Step 348000
Ar 1.043674e+00 0.000000e+00 0.000000e+00
1
Step 349000
Ar 1.085656e+00 0.000000e+00 0.000000e+00
1
Step 350000
Ar 1.095706e+00 0.000000e+00 0.000000e+00
1
Step 351000
Ar 1.083264e+00 0.000000e+00 0.000000e+00
1
Step 352000
Ar 1.095702e+00 0.000000e+00 0.000000e+00
1
Step 353000
Ar 1.086317e+00 0.000000e+00 0.000000e+00
1
Step 354000
Ar 1.098148e+00 0.000000e+00 0.000000e+00
1
Step 355000
Ar 9.061786e-01 0.000000e+00 0.000000e+00
1
Step 356000
Ar 1.100614e+00 0.000000e+00 0.000000e+00
1
Step 357000
Ar 1.080099e+00 0.000000e+00 0.000000e+00
1
Step 358000
Ar 1.080052e+00 0.000000e+00 0.000000e+00
1
Step 359000
Ar 1.080923e+00 0.000000e+00 0.000000e+00
1
Step 360000
Ar 1.082638e+00 0.000000e+00 0.000000e+00
1
Step 361000
Ar 9.884461e-01 0.000000e+00 0.000000e+00
1
Step 362000
Ar 1.031952e+00 0.000000e+00 0.000000e+00
1
Step 363000
Ar 1.192070e+00 0.000000e+00 0.000000e+00
1
Step 364000
Ar 9.159423e-01 0.000000e+00 0.000000e+00
1
Step 365000
Ar 8.440159e-01 0.000000e+00 0.000000e+00
1
Step 366000
Ar 1.079629e+00 0.000000e+00 0.000000e+00
1
Step 367000
Ar 9.376434e-01 0.000000e+00 0.000000e+00
1
Step 368000
Ar 1.168506e+00 0.000000e+00 0.000000e+00
1
Step 369000
Ar 9.404733e-01 0.000000e+00 0.000000e+00
1
Step 370000
Ar 7.999706e-01 0.000000e+00 0.000000e+00
1
Step 371000
Ar 1.109284e+00 0.000000e+00 0.000000e+00
1
Step 372000
Ar 1.162050e+00 0.000000e+00 0.000000e+00
1
Step 373000
Ar 1.004954e+00 0.000000e+00 0.000000e+00
1
Step 374000
Ar 1.003483e+00 0.000000e+00 0.000000e+00
1
Step 375000
Ar 7.315655e-01 0.000000e+00 0.000000e+00
1
Step 376000
Ar 8.305660e-01 0.000000e+00 0.000000e+00
1
Step 377000
Ar 9.426898e-01 0.000000e+00 0.000000e+00
1
Step 378000
Ar 8.446910e-01 0.000000e+00 0.000000e+00
1
Step 379000
Ar 9.236738e-01 0.000000e+00 0.000000e+00
1
Step 380000
Ar 8.319364e-01 0.000000e+00 0.000000e+00
1
Step 381000
Ar 8.396430e-01 0.000000e+00 0.000000e+00
1
Step 382000
Ar 1.108111e+00 0.000000e+00 0.000000e+00
1
Step 383000
Ar 1.079842e+00 0.000000e+00 0.000000e+00
1
Step 384000
Ar 8.531141e-01 0.000000e+00 0.000000e+00
1
Step 385000
Ar 9.065734e-01 0.000000e+00 0.000000e+00
1
Step 386000
Ar 1.096989e+00 0.000000e+00 0.000000e+00
1
Step 387000
Ar 1.079256e+00 0.000000e+00 0.000000e+00
1
Step 388000
Ar 8.605717e-01 0.000000e+00 0.000000e+00
1
Step 389000
Ar 1.063327e+00 0.000000e+00 0.000000e+00
1
Step 390000
Ar 1.052078e+00 0.000000e+00 0.000000e+00
1
Step 391000
Ar 1.050295e+00 0.000000e+00 0.000000e+00
1
Step 392000
Ar 1.053041e+00 0.000000e+00 0.000000e+00
1
Step 393000
Ar 1.070180e+00 0.000000e+00 0.000000e+00
1
Step 394000
Ar 1.005538e+00 0.000000e+00 0.000000e+00
1
Step 395000
Ar 9.985062e-01 0.000000e+00 0.000000e+00
1
Step 396000
Ar 9.646355e-01 0.000000e+00 0.000000e+00
1
Step 397000
Ar 9.717947e-01 0.000000e+00 0.000000e+00
1
Step 398000
Ar 1.088230e+00 0.000000e+00 0.000000e+00
1
Step 399000
Ar 9.795417e-01 0.000000e+00 0.000000e+00
1
Step 400000
Ar 1.035735e+00 0.000000e+00 0.000000e+00
1
Step 401000
Ar 1.024413e+00 0.000000e+00 0.000000e+00
1
Step 402000
Ar 1.214402e+00 0.000000e+00 0.000000e+00
1
Step 403000
Ar 1.111921e+00 0.000000e+00 0.000000e+00
1
Step 404000
Ar 1.109600e+00 0.000000e+00 0.000000e+00
1
Step 405000
Ar 1.105110e+00 0.000000e+00 0.000000e+00
1
Step 406000
Ar 8.153005e-01 0.000000e+00 0.000000e+00
1
Step 407000
Ar 1.235314e+00 0.000000e+00 0.000000e+00
1
Step 408000
Ar 1.034444e+00 0.000000e+00 0.000000e+00
1
Step 409000
Ar 9.296634e-01 0.000000e+00 0.000000e+00
1
Step 410000
Ar 9.406711e-01 0.000000e+00 0.000000e+00
1
Step 411000
Ar 7.834538e-01 0.000000e+00 0.000000e+00
1
Step 412000
Ar 9.394765e-01 0.000000e+00 0.000000e+00
1
Step 413000
Ar 8.641581e-01 0.000000e+00 0.000000e+00
1
Step 414000
Ar 9.448221e-01 0.000000e+00 0.000000e+00
1
Step 415000
Ar 9.448376e-01 0.000000e+00 0.000000e+00
1
Step 416000
Ar 8.080856e-01 0.000000e+00 0.000000e+00
1
Step 417000
Ar 8.152657e-01 0.000000e+00 0.000000e+00
1
Step 418000
Ar 1.145200e+00 0.000000e+00 0.000000e+00
1
Step 419000
Ar 9.605188e-01 0.000000e+00 0.000000e+00
1
Step 420000
Ar 8.854166e-01 0.000000e+00 0.000000e+00
1
Step 421000
Ar 8.922729e-01 0.000000e+00 0.000000e+00
1
Step 422000
Ar 8.930403e-01 0.000000e+00 0.000000e+00
1
Step 423000
Ar 8.932084e-01 0.000000e+00 0.000000e+00
1
Step 424000
Ar 1.149061e+00 0.000000e+00 0.000000e+00
1
Step 425000
Ar 8.641680e-01 0.000000e+00 0.000000e+00
1
Step 426000
Ar 1.072527e+00 0.000000e+00 0.000000e+00
1
Step 427000
Ar 9.048500e-01 0.000000e+00 0.000000e+00
1
Step 428000
Ar 7.939393e-01 0.000000e+00 0.000000e+00
1
Step 429000
Ar 8.549390e-01 0.000000e+00 0.000000e+00
1
Step 430000
Ar 8.549939e-01 0.000000e+00 0.000000e+00
1
Step 431000
Ar 1.212729e+00 0.000000e+00 0.000000e+00
1
Step 432000
Ar 1.149882e+00 0.000000e+00 0.000000e+00
1
Step 433000
Ar 9.046011e-01 0.000000e+00 0.000000e+00
1
Step 434000
Ar 1.088234e+00 0.000000e+00 0.000000e+00
1
Step 435000
Ar 8.818607e-01 0.000000e+00 0.000000e+00
1
Step 436000
Ar 9.720254e-01 0.000000e+00 0.000000e+00
1
Step 437000
Ar 9.625916e-01 0.000000e+00 0.000000e+00
1
Step 438000
Ar 8.584668e-01 0.000000e+00 0.000000e+00
1
Step 439000
Ar 8.589509e-01 0.000000e+00 0.000000e+00
1
Step 440000
Ar 8.603845e-01 0.000000e+00 0.000000e+00
1
Step 441000
Ar 8.646515e-01 0.000000e+00 0.000000e+00
1
Step 442000
Ar 1.063812e+00 0.000000e+00 0.000000e+00
1
Step 443000
Ar 8.628414e-01 0.000000e+00 0.000000e+00
1
Step 444000
Ar 1.076652e+00 0.000000e+00 0.000000e+00
1
Step 445000
Ar 9.043098e-01 0.000000e+00 0.000000e+00
1
Step 446000
Ar 9.020997e-01 0.000000e+00 0.000000e+00
1
Step 447000
Ar 9.024673e-01 0.000000e+00 0.000000e+00
1
Step 448000
Ar 1.062119e+00 0.000000e+00 0.000000e+00
1
Step 449000
Ar 1.053111e+00 0.000000e+00 0.000000e+00
1
Step 450000
Ar 1.060383e+00 0.000000e+00 0.000000e+00
1
Step 451000
Ar 1.054972e+00 0.000000e+00 0.000000e+00
1
Step 452000
Ar 1.060669e+00 0.000000e+00 0.000000e+00
1
Step 453000
Ar 1.059601e+00 0.000000e+00 0.000000e+00
1
Step 454000
Ar 1.066077e+00 0.000000e+00 0.000000e+00
1
Step 455000
Ar 1.059101e+00 0.000000e+00 0.000000e+00
1
Step 456000
Ar 1.055311e+00 0.000000e+00 0.000000e+00
1
Step 457000
Ar 1.059616e+00 0.000000e+00 0.000000e+00
1
Step 458000
Ar 1.061527e+00 0.000000e+00 0.000000e+00
1
Step 459000
Ar 1.060009e+00 0.000000e+00 0.000000e+00
1
Step 460000
Ar 1.060902e+00 0.000000e+00 0.000000e+00
1
Step 461000
Ar 1.061639e+00 0.000000e+00 0.000000e+00
1
Step 462000
Ar 1.062189e+00 0.000000e+00 0.000000e+00
1
Step 463000
Ar 1.105944e+00 0.000000e+00 0.000000e+00
1
Step 464000
Ar 9.189116e-01 0.000000e+00 0.000000e+00
1
Step 465000
Ar 8.942513e-01 0.000000e+00 0.000000e+00
1
Step 466000
Ar 8.869056e-01 0.000000e+00 0.000000e+00
1
Step 467000
Ar 1.077070e+00 0.000000e+00 0.000000e+00
1
Step 468000
Ar 1.098972e+00 0.000000e+00 0.000000e+00
1
Step 469000
Ar 1.051823e+00 0.000000e+00 0.000000e+00
1
Step 470000
Ar 1.053892e+00 0.000000e+00 0.000000e+00
1
Step 471000
Ar 1.058310e+00 0.000000e+00 0.000000e+00
1
Step 472000
Ar 1.052971e+00 0.000000e+00 0.000000e+00
1
Step 473000
Ar 5.401567e-01 0.000000e+00 0.000000e+00
1
Step 474000
Ar 9.673516e-01 0.000000e+00 0.000000e+00
1
Step 475000
Ar 1.068607e+00 0.000000e+00 0.000000e+00
1
Step 476000
Ar 8.812237e-01 0.000000e+00 0.000000e+00
1
Step 477000
Ar 8.494479e-01 0.000000e+00 0.000000e+00
1
Step 478000
Ar 8.513102e-01 0.000000e+00 0.000000e+00
1
Step 479000
Ar 8.528878e-01 0.000000e+00 0.000000e+00
1
Step 480000
Ar 8.564321e-01 0.000000e+00 0.000000e+00
1
Step 481000
Ar 8.523595e-01 0.000000e+00 0.000000e+00
1
Step 482000
Ar 5.966518e-01 0.000000e+00 0.000000e+00
1
Step 483000
Ar 6.751449e-01 0.000000e+00 0.000000e+00
1
Step 484000
Ar 8.077329e-01 0.000000e+00 0.000000e+00
1
Step 485000
Ar 1.086131e+00 0.000000e+00 0.000000e+00
1
Step 486000
Ar 1.074070e+00 0.000000e+00 0.000000e+00
1
Step 487000
Ar 1.073989e+00 0.000000e+00 0.000000e+00
1
Step 488000
Ar 1.080663e+00 0.000000e+00 0.000000e+00
1
Step 489000
Ar 1.078500e+00 0.000000e+00 0.000000e+00
1
Step 490000
Ar 1.085908e+00 0.000000e+00 0.000000e+00
1
Step 491000
Ar 1.076768e+00 0.000000e+00 0.000000e+00
1
Step 492000
Ar 9.355746e-01 0.000000e+00 0.000000e+00
1
Step 493000
Ar 8.450202e-01 0.000000e+00 0.000000e+00
1
Step 494000
Ar 8.472266e-01 0.000000e+00 0.000000e+00
1
Step 495000
Ar 9.798941e-01 0.000000e+00 0.000000e+00
1
Step 496000
Ar 9.828405e-01 0.000000e+00 0.000000e+00
1
Step 497000
Ar 1.007822e+00 0.000000e+00 0.000000e+00
1
Step 498000
Ar 1.228172e+00 0.000000e+00 0.000000e+00
1
Step 499000
Ar 8.640308e-01 0.000000e+00 0.000000e+00
1
Step 500000
Ar 9.797569e-01 0.000000e+00 0.000000e+00
1
Step 501000
Ar 9.799215e-01 0.000000e+00 0.000000e+00
1
Step 502000
Ar 8.581842e-01 0.000000e+00 0.000000e+00
1
Step 503000
Ar 9.557606e-01 0.000000e+00 0.000000e+00
1
Step 504000
Ar 1.090213e+00 0.000000e+00 0.000000e+00
1
Step 505000
Ar 9.220509e-01 0.000000e+00 0.000000e+00
1
Step 506000
Ar 6.485578e-01 0.000000e+00 0.000000e+00
1
Step 507000
Ar 9.085744e-01 0.000000e+00 0.000000e+00
1
Step 508000
Ar 9.697850e-01 0.000000e+00 0.000000e+00
1
Step 509000
Ar 1.146711e+00 0.000000e+00 0.000000e+00
1
Step 510000
Ar 1.023198e+00 0.000000e+00 0.000000e+00
1
Step 511000
Ar 7.227861e-01 0.000000e+00 0.000000e+00
1
Step 512000
Ar 8.222846e-01 0.000000e+00 0.000000e+00
1
Step 513000
Ar 1.123009e+00 0.000000e+00 0.000000e+00
1
Step 514000
Ar 9.039395e-01 0.000000e+00 0.000000e+00
1
Step 515000
Ar 6.992517e-01 0.000000e+00 0.000000e+00
1
Step 516000
Ar 6.342577e-01 0.000000e+00 0.000000e+00
1
Step 517000
Ar 7.407046e-01 0.000000e+00 0.000000e+00
1
Step 518000
Ar 9.560516e-01 0.000000e+00 0.000000e+00
1
Step 519000
Ar 1.126196e+00 0.000000e+00 0.000000e+00
1
Step 520000
Ar 8.300745e-01 0.000000e+00 0.000000e+00
1
Step 521000
Ar 9.182256e-01 0.000000e+00 0.000000e+00
1
Step 522000
Ar 1.015672e+00 0.000000e+00 0.000000e+00
1
Step 523000
Ar 1.147749e+00 0.000000e+00 0.000000e+00
1
Step 524000
Ar 9.187779e-01 0.000000e+00 0.000000e+00
1
Step 525000
Ar 7.214654e-01 0.000000e+00 0.000000e+00
1
Step 526000
Ar 5.571919e-01 0.000000e+00 0.000000e+00
1
Step 527000
Ar 1.129758e+00 0.000000e+00 0.000000e+00
1
Step 528000
Ar -1.011686e+00 0.000000e+00 0.000000e+00
1
Step 529000
Ar -9.957064e-01 0.000000e+00 0.000000e+00
1
Step 530000
Ar -1.000794e+00 0.000000e+00 0.000000e+00
1
Step 531000
Ar -1.000774e+00 0.000000e+00 0.000000e+00
1
Step 532000
Ar -1.008197e+00 0.000000e+00 0.000000e+00
1
Step 533000
Ar -1.013992e+00 0.000000e+00 0.000000e+00
1
Step 534000
Ar -1.009812e+00 0.000000e+00 0.000000e+00
1
Step 535000
Ar -1.006972e+00 0.000000e+00 0.000000e+00
1
Step 536000
Ar -1.004607e+00 0.000000e+00 0.000000e+00
1
Step 537000
Ar -1.013681e+00 0.000000e+00 0.000000e+00
1
Step 538000
Ar -1.018823e+00 0.000000e+00 0.000000e+00
1
Step 539000
Ar -1.014040e+00 0.000000e+00 0.000000e+00
1
Step 540000
Ar -1.017446e+00 0.000000e+00 0.000000e+00
1
Step 541000
Ar -9.950447e-01 0.000000e+00 0.000000e+00
1
Step 542000
Ar -9.850807e-01 0.000000e+00 0.000000e+00
1
Step 543000
Ar -9.569275e-01 0.000000e+00 0.000000e+00
1
Step 544000
Ar -9.722881e-01 0.000000e+00 0.000000e+00
1
Step 545000
Ar -9.686504e-01 0.000000e+00 0.000000e+00
1
Step 546000
Ar -9.713392e-01 0.000000e+00 0.000000e+00
1
Step 547000
Ar -9.671640e-01 0.000000e+00 0.000000e+00
1
Step 548000
Ar -9.702821e-01 0.000000e+00 0.000000e+00
1
Step 549000
Ar -9.886684e-01 0.000000e+00 0.000000e+00
1
Step 550000
Ar -9.594839e-01 0.000000e+00 0.000000e+00
1
Step 551000
Ar -9.607315e-01 0.000000e+00 0.000000e+00
1
Step 552000
Ar -9.613823e-01 0.000000e+00 0.000000e+00
1
Step 553000
Ar -9.522470e-01 0.000000e+00 0.000000e+00
1
Step 554000
Ar -9.550723e-01 0.000000e+00 0.000000e+00
1
Step 555000
Ar -9.594807e-01 0.000000e+00 0.000000e+00
1
Step 556000
Ar -9.590804e-01 0.000000e+00 0.000000e+00
1
Step 557000
Ar -9.550863e-01 0.000000e+00 0.000000e+00
1
Step 558000
Ar -9.593943e-01 0.000000e+00 0.000000e+00
1
Step 559000
Ar -9.587473e-01 0.000000e+00 0.000000e+00
1
Step 560000
Ar -9.576942e-01 0.000000e+00 0.000000e+00
1
Step 561000
Ar -9.616463e-01 0.000000e+00 0.000000e+00
1
Step 562000
Ar -1.038652e+00 0.000000e+00 0.000000e+00
1
Step 563000
Ar -1.042532e+00 0.000000e+00 0.000000e+00
1
Step 564000
Ar -1.043479e+00 0.000000e+00 0.000000e+00
1
Step 565000
Ar -1.042273e+00 0.000000e+00 0.000000e+00
1
Step 566000
Ar -9.436230e-01 0.000000e+00 0.000000e+00
1
Step 567000
Ar -9.424379e-01 0.000000e+00 0.000000e+00
1
Step 568000
Ar -9.466855e-01 0.000000e+00 0.000000e+00
1
Step 569000
Ar -9.465385e-01 0.000000e+00 0.000000e+00
1
Step 570000
Ar -9.446834e-01 0.000000e+00 0.000000e+00
1
Step 571000
Ar -9.283673e-01 0.000000e+00 0.000000e+00
1
Step 572000
Ar -9.453176e-01 0.000000e+00 0.000000e+00
1
Step 573000
Ar -9.507463e-01 0.000000e+00 0.000000e+00
1
Step 574000
Ar -9.437091e-01 0.000000e+00 0.000000e+00
1
Step 575000
Ar -9.366968e-01 0.000000e+00 0.000000e+00
1
Step 576000
Ar -9.450870e-01 0.000000e+00 0.000000e+00
1
Step 577000
Ar -9.385582e-01 0.000000e+00 0.000000e+00
1
Step 578000
Ar -9.307400e-01 0.000000e+00 0.000000e+00
1
Step 579000
Ar -9.299697e-01 0.000000e+00 0.000000e+00
1
Step 580000
Ar -9.325813e-01 0.000000e+00 0.000000e+00
1
Step 581000
Ar -9.315547e-01 0.000000e+00 0.000000e+00
1
Step 582000
Ar -9.260236e-01 0.000000e+00 0.000000e+00
1
Step 583000
Ar -9.313592e-01 0.000000e+00 0.000000e+00
1
Step 584000
Ar -9.299223e-01 0.000000e+00 0.000000e+00
1
Step 585000
Ar -1.009536e+00 0.000000e+00 0.000000e+00
1
Step 586000
Ar -9.219276e-01 0.000000e+00 0.000000e+00
1
Step 587000
Ar -9.186058e-01 0.000000e+00 0.000000e+00
1
Step 588000
Ar -9.189614e-01 0.000000e+00 0.000000e+00
1
Step 589000
Ar -9.226258e-01 0.000000e+00 0.000000e+00
1
Step 590000
Ar -9.105515e-01 0.000000e+00 0.000000e+00
1
Step 591000
Ar -9.087011e-01 0.000000e+00 0.000000e+00
1
Step 592000
Ar -9.087586e-01 0.000000e+00 0.000000e+00
1
Step 593000
Ar -9.119018e-01 0.000000e+00 0.000000e+00
1
Step 594000
Ar -9.059703e-01 0.000000e+00 0.000000e+00
1
Step 595000
Ar -9.098241e-01 0.000000e+00 0.000000e+00
1
Step 596000
Ar -9.098452e-01 0.000000e+00 0.000000e+00
1
Step 597000
Ar -9.095860e-01 0.000000e+00 0.000000e+00
1
Step 598000
Ar -9.104148e-01 0.000000e+00 0.000000e+00
1
Step 599000
Ar -9.070437e-01 0.000000e+00 0.000000e+00
1
Step 600000
Ar -9.066213e-01 0.000000e+00 0.000000e+00
1
Step 601000
Ar -9.062411e-01 0.000000e+00 0.000000e+00
1
Step 602000
Ar -9.058664e-01 0.000000e+00 0.000000e+00
1
Step 603000
Ar -9.077654e-01 0.000000e+00 0.000000e+00
1
Step 604000
Ar -9.075112e-01 0.000000e+00 0.000000e+00
1
Step 605000
Ar -9.048298e-01 0.000000e+00 0.000000e+00
1
Step 606000
Ar -9.068633e-01 0.000000e+00 0.000000e+00
1
Step 607000
Ar -9.072000e-01 0.000000e+00 0.000000e+00
1
Step 608000
Ar -8.938966e-01 0.000000e+00 0.000000e+00
1
Step 609000
Ar -8.958403e-01 0.000000e+00 0.000000e+00
1
Step 610000
Ar -8.940009e-01 0.000000e+00 0.000000e+00
1
Step 611000
Ar -1.025672e+00 0.000000e+00 0.000000e+00
1
Step 612000
Ar -1.008977e+00 0.000000e+00 0.000000e+00
1
Step 613000
Ar -1.010492e+00 0.000000e+00 0.000000e+00
1
Step 614000
Ar -1.062164e+00 0.000000e+00 0.000000e+00
1
Step 615000
Ar -1.067381e+00 0.000000e+00 0.000000e+00
1
Step 616000
Ar -1.069812e+00 0.000000e+00 0.000000e+00
1
Step 617000
Ar -1.069234e+00 0.000000e+00 0.000000e+00
1
Step 618000
Ar -1.071720e+00 0.000000e+00 0.000000e+00
1
Step 619000
Ar -1.074388e+00 0.000000e+00 0.000000e+00
1
Step 620000
Ar -9.630060e-01 0.000000e+00 0.000000e+00
1
Step 621000
Ar -9.624025e-01 0.000000e+00 0.000000e+00
1
Step 622000
Ar -9.975391e-01 0.000000e+00 0.000000e+00
1
Step 623000
Ar -1.000837e+00 0.000000e+00 0.000000e+00
1
Step 624000
Ar -1.017217e+00 0.000000e+00 0.000000e+00
1
Step 625000
Ar -9.523039e-01 0.000000e+00 0.000000e+00
1
Step 626000
Ar -1.078833e+00 0.000000e+00 0.000000e+00
1
Step 627000
Ar -1.080508e+00 0.000000e+00 0.000000e+00
1
Step 628000
Ar -1.081886e+00 0.000000e+00 0.000000e+00
1
Step 629000
Ar -1.085084e+00 0.000000e+00 0.000000e+00
1
Step 630000
Ar -1.079282e+00 0.000000e+00 0.000000e+00
1
Step 631000
Ar -1.081379e+00 0.000000e+00 0.000000e+00
1
Step 632000
Ar -1.076439e+00 0.000000e+00 0.000000e+00
1
Step 633000
Ar -8.813474e-01 0.000000e+00 0.000000e+00
1
Step 634000
Ar -1.008440e+00 0.000000e+00 0.000000e+00
1
Step 635000
Ar -9.165304e-01 0.000000e+00 0.000000e+00
1
Step 636000
Ar -1.063443e+00 0.000000e+00 0.000000e+00
1
Step 637000
Ar -1.093857e+00 0.000000e+00 0.000000e+00
1
Step 638000
Ar -1.098690e+00 0.000000e+00 0.000000e+00
1
Step 639000
Ar -9.223613e-01 0.000000e+00 0.000000e+00
1
Step 640000
Ar -1.025603e+00 0.000000e+00 0.000000e+00
1
Step 641000
Ar -1.010181e+00 0.000000e+00 0.000000e+00
1
Step 642000
Ar -1.007671e+00 0.000000e+00 0.000000e+00
1
Step 643000
Ar -9.812349e-01 0.000000e+00 0.000000e+00
1
Step 644000
Ar -9.076689e-01 0.000000e+00 0.000000e+00
1
Step 645000
Ar -9.925771e-01 0.000000e+00 0.000000e+00
1
Step 646000
Ar -9.148570e-01 0.000000e+00 0.000000e+00
1
Step 647000
Ar -9.153278e-01 0.000000e+00 0.000000e+00
1
Step 648000
Ar -9.186118e-01 0.000000e+00 0.000000e+00
1
Step 649000
Ar -9.106549e-01 0.000000e+00 0.000000e+00
1
Step 650000
Ar -8.839059e-01 0.000000e+00 0.000000e+00
1
Step 651000
Ar -8.867164e-01 0.000000e+00 0.000000e+00
1
Step 652000
Ar -8.780534e-01 0.000000e+00 0.000000e+00
1
Step 653000