1
Step 0
Ar 4.985573e+00 0.000000e+00 0.000000e+00
1
Step 1000
Ar 3.962090e+00 0.000000e+00 0.000000e+00
1
Step 2000
Ar 1.642490e+00 0.000000e+00 0.000000e+00
1
Step 3000
Ar -1.214417e+00 0.000000e+00 0.000000e+00
1
Step 4000
Ar -3.674052e+00 0.000000e+00 0.000000e+00
1
Step 5000
Ar -4.931796e+00 0.000000e+00 0.000000e+00
1
Step 6000
Ar -4.576205e+00 0.000000e+00 0.000000e+00
1
Step 7000
Ar -2.723602e+00 0.000000e+00 0.000000e+00
1
Step 8000
Ar 1.997207e-02 0.000000e+00 0.000000e+00
1
Step 9000
Ar 2.757012e+00 0.000000e+00 0.000000e+00
1
Step 10000
Ar 4.592152e+00 0.000000e+00 0.000000e+00
1
Step 11000
Ar 4.925064e+00 0.000000e+00 0.000000e+00
1
Step 12000
Ar 3.646842e+00 0.000000e+00 0.000000e+00
1
Step 13000
Ar 1.175631e+00 0.000000e+00 0.000000e+00
1
Step 14000
Ar -1.680164e+00 0.000000e+00 0.000000e+00
1
Step 15000
Ar -3.986328e+00 0.000000e+00 0.000000e+00
1
Step 16000
Ar -4.988446e+00 0.000000e+00 0.000000e+00
1
Step 17000
Ar -4.358697e+00 0.000000e+00 0.000000e+00
1
Step 18000
Ar -2.303089e+00 0.000000e+00 0.000000e+00
1
Step 19000
Ar 5.059272e-01 0.000000e+00 0.000000e+00
1
Step 20000
Ar 3.149440e+00 0.000000e+00 0.000000e+00
1
Step 21000
Ar 4.762677e+00 0.000000e+00 0.000000e+00
1
Step 22000
Ar 4.817903e+00 0.000000e+00 0.000000e+00
1
Step 23000
Ar 3.297051e+00 0.000000e+00 0.000000e+00
1
Step 24000
Ar 6.976357e-01 0.000000e+00 0.000000e+00
1
Step 25000
Ar -2.129996e+00 0.000000e+00 0.000000e+00
1
Step 26000
Ar -4.260844e+00 0.000000e+00 0.000000e+00
1
Step 27000
Ar -4.997844e+00 0.000000e+00 0.000000e+00
1
Step 28000
Ar -4.099901e+00 0.000000e+00 0.000000e+00
1
Step 29000
Ar -1.860761e+00 0.000000e+00 0.000000e+00
1
Step 30000
Ar 9.870899e-01 0.000000e+00 0.000000e+00
1
Step 31000
Ar 3.512034e+00 0.000000e+00 0.000000e+00
1
Step 32000
Ar 4.888089e+00 0.000000e+00 0.000000e+00
1
Step 33000
Ar 4.665105e+00 0.000000e+00 0.000000e+00
1
Step 34000
Ar 2.916028e+00 0.000000e+00 0.000000e+00
1
Step 35000
Ar 2.130324e-01 0.000000e+00 0.000000e+00
1
Step 36000
Ar -2.559652e+00 0.000000e+00 0.000000e+00
1
Step 37000
Ar -4.495000e+00 0.000000e+00 0.000000e+00
1
Step 38000
Ar -4.959900e+00 0.000000e+00 0.000000e+00
1
Step 39000
Ar -3.802271e+00 0.000000e+00 0.000000e+00
1
Step 40000
Ar -1.400807e+00 0.000000e+00 0.000000e+00
1
Step 41000
Ar 1.458903e+00 0.000000e+00 0.000000e+00
1
Step 42000
Ar 3.841362e+00 0.000000e+00 0.000000e+00
1
Step 43000
Ar 4.967198e+00 0.000000e+00 0.000000e+00
1
Step 44000
Ar 4.468118e+00 0.000000e+00 0.000000e+00
1
Step 45000
Ar 2.507384e+00 0.000000e+00 0.000000e+00
1
Step 46000
Ar -2.735887e-01 0.000000e+00 0.000000e+00
1
Step 47000
Ar -2.965063e+00 0.000000e+00 0.000000e+00
1
Step 48000
Ar -4.686577e+00 0.000000e+00 0.000000e+00
1
Step 49000
Ar -4.874974e+00 0.000000e+00 0.000000e+00
1
Step 50000
Ar -3.468623e+00 0.000000e+00 0.000000e+00
1
Step 51000
Ar -9.275835e-01 0.000000e+00 0.000000e+00
1
Step 52000
Ar 1.916896e+00 0.000000e+00 0.000000e+00
1
Step 53000
Ar 4.134302e+00 0.000000e+00 0.000000e+00
1
Step 54000
Ar 4.999257e+00 0.000000e+00 0.000000e+00
1
Step 55000
Ar 4.228807e+00 0.000000e+00 0.000000e+00
1
Step 56000
Ar 2.074989e+00 0.000000e+00 0.000000e+00
1
Step 57000
Ar -7.576183e-01 0.000000e+00 0.000000e+00
1
Step 58000
Ar -3.342387e+00 0.000000e+00 0.000000e+00
1
Step 59000
Ar -4.833762e+00 0.000000e+00 0.000000e+00
1
Step 60000
Ar -4.743871e+00 0.000000e+00 0.000000e+00
1
Step 61000
Ar -3.102120e+00 0.000000e+00 0.000000e+00
1
Step 62000
Ar -4.455741e-01 0.000000e+00 0.000000e+00
1
Step 63000
Ar 2.356732e+00 0.000000e+00 0.000000e+00
1
Step 64000
Ar 4.388082e+00 0.000000e+00 0.000000e+00
1
Step 65000
Ar 4.983960e+00 0.000000e+00 0.000000e+00
1
Step 66000
Ar 3.949439e+00 0.000000e+00 0.000000e+00
1
Step 67000
Ar 1.622939e+00 0.000000e+00 0.000000e+00
1
Step 68000
Ar -1.234472e+00 0.000000e+00 0.000000e+00
1
Step 69000
Ar -3.688050e+00 0.000000e+00 0.000000e+00
1
Step 70000
Ar -4.935159e+00 0.000000e+00 0.000000e+00
1
Step 71000
Ar -4.567832e+00 0.000000e+00 0.000000e+00
1
Step 72000
Ar -2.706232e+00 0.000000e+00 0.000000e+00
1
Step 73000
Ar 4.065593e-02 0.000000e+00 0.000000e+00
1
Step 74000
Ar 2.774244e+00 0.000000e+00 0.000000e+00
1
Step 75000
Ar 4.600295e+00 0.000000e+00 0.000000e+00
1
Step 76000
Ar 4.921454e+00 0.000000e+00 0.000000e+00
1
Step 77000
Ar 3.632660e+00 0.000000e+00 0.000000e+00
1
Step 78000
Ar 1.155516e+00 0.000000e+00 0.000000e+00
1
Step 79000
Ar -1.699631e+00 0.000000e+00 0.000000e+00
1
Step 80000
Ar -3.998779e+00 0.000000e+00 0.000000e+00
1
Step 81000
Ar -4.989809e+00 0.000000e+00 0.000000e+00
1
Step 82000
Ar -4.348525e+00 0.000000e+00 0.000000e+00
1
Step 83000
Ar -2.284710e+00 0.000000e+00 0.000000e+00
1
Step 84000
Ar 5.265009e-01 0.000000e+00 0.000000e+00
1
Step 85000
Ar 3.165478e+00 0.000000e+00 0.000000e+00
1
Step 86000
Ar 4.768933e+00 0.000000e+00 0.000000e+00
1
Step 87000
Ar 4.812330e+00 0.000000e+00 0.000000e+00
1
Step 88000
Ar 3.281472e+00 0.000000e+00 0.000000e+00
1
Step 89000
Ar 6.771478e-01 0.000000e+00 0.000000e+00
1
Step 90000
Ar -2.148692e+00 0.000000e+00 0.000000e+00
1
Step 91000
Ar -4.271631e+00 0.000000e+00 0.000000e+00
1
Step 92000
Ar -4.997194e+00 0.000000e+00 0.000000e+00
1
Step 93000
Ar -4.088027e+00 0.000000e+00 0.000000e+00
1
Step 94000
Ar -1.841546e+00 0.000000e+00 0.000000e+00
1
Step 95000
Ar 1.007359e+00 0.000000e+00 0.000000e+00
1
Step 96000
Ar 3.526727e+00 0.000000e+00 0.000000e+00
1
Step 97000
Ar 4.892399e+00 0.000000e+00 0.000000e+00
1
Step 98000
Ar 4.657623e+00 0.000000e+00 0.000000e+00
1
Step 99000
Ar 2.899201e+00 0.000000e+00 0.000000e+00
