1
Step 120000
Ar 8.970129e-01 0.000000e+00 0.000000e+00
1
Step 121000
Ar 9.122170e-01 0.000000e+00 0.000000e+00
1
Step 122000
Ar 7.746656e-01 0.000000e+00 0.000000e+00
1
Step 123000
Ar 8.441919e-01 0.000000e+00 0.000000e+00
1
Step 124000
Ar 7.867089e-01 0.000000e+00 0.000000e+00
1
Step 125000
Ar 6.526968e-01 0.000000e+00 0.000000e+00
1
Step 126000
Ar 4.949122e-01 0.000000e+00 0.000000e+00
1
Step 127000
Ar 6.403472e-01 0.000000e+00 0.000000e+00
1
Step 128000
Ar 5.365757e-01 0.000000e+00 0.000000e+00
1
Step 129000
Ar 9.577951e-01 0.000000e+00 0.000000e+00
1
Step 130000
Ar 9.865520e-01 0.000000e+00 0.000000e+00
1
Step 131000
Ar 1.061237e+00 0.000000e+00 0.000000e+00
1
Step 132000
Ar 1.040969e+00 0.000000e+00 0.000000e+00
1
Step 133000
Ar 7.139430e-01 0.000000e+00 0.000000e+00
1
Step 134000
Ar 6.867709e-01 0.000000e+00 0.000000e+00
1
Step 135000
Ar 6.641887e-01 0.000000e+00 0.000000e+00
1
Step 136000
Ar 7.511051e-01 0.000000e+00 0.000000e+00
1
Step 137000
Ar 7.020709e-01 0.000000e+00 0.000000e+00
1
Step 138000
Ar 8.894809e-01 0.000000e+00 0.000000e+00
1
Step 139000
Ar 1.016221e+00 0.000000e+00 0.000000e+00
1
Step 140000
Ar 1.035498e+00 0.000000e+00 0.000000e+00
1
Step 141000
Ar 1.000196e+00 0.000000e+00 0.000000e+00
1
Step 142000
Ar 9.330477e-01 0.000000e+00 0.000000e+00
1
Step 143000
Ar 9.698129e-01 0.000000e+00 0.000000e+00
1
Step 144000
Ar 8.196697e-01 0.000000e+00 0.000000e+00
1
Step 145000
Ar 1.028748e+00 0.000000e+00 0.000000e+00
1
Step 146000
Ar 1.011755e+00 0.000000e+00 0.000000e+00
1
Step 147000
Ar 8.006859e-01 0.000000e+00 0.000000e+00
1
Step 148000
Ar 9.411962e-01 0.000000e+00 0.000000e+00
1
Step 149000
Ar 9.778681e-01 0.000000e+00 0.000000e+00
1
Step 150000
Ar 1.216617e+00 0.000000e+00 0.000000e+00
1
Step 151000
Ar 1.182186e+00 0.000000e+00 0.000000e+00
1
Step 152000
Ar 1.192156e+00 0.000000e+00 0.000000e+00
1
Step 153000
Ar 1.263737e+00 0.000000e+00 0.000000e+00
1
Step 154000
Ar 1.252178e+00 0.000000e+00 0.000000e+00
1
Step 155000
Ar 1.200080e+00 0.000000e+00 0.000000e+00
1
Step 156000
Ar 1.227674e+00 0.000000e+00 0.000000e+00
1
Step 157000
Ar 1.172214e+00 0.000000e+00 0.000000e+00
1
Step 158000
Ar 1.050013e+00 0.000000e+00 0.000000e+00
1
Step 159000
Ar 1.146611e+00 0.000000e+00 0.000000e+00
1
Step 160000
Ar 1.118840e+00 0.000000e+00 0.000000e+00
1
Step 161000
Ar 1.075582e+00 0.000000e+00 0.000000e+00
1
Step 162000
Ar 1.103767e+00 0.000000e+00 0.000000e+00
1
Step 163000
Ar 1.126058e+00 0.000000e+00 0.000000e+00
1
Step 164000
Ar 1.163272e+00 0.000000e+00 0.000000e+00
1
Step 165000
Ar 1.090056e+00 0.000000e+00 0.000000e+00
1
Step 166000
Ar 1.066986e+00 0.000000e+00 0.000000e+00
1
Step 167000
Ar 1.098429e+00 0.000000e+00 0.000000e+00
1
Step 168000
Ar 1.080546e+00 0.000000e+00 0.000000e+00
1
Step 169000
Ar 1.089665e+00 0.000000e+00 0.000000e+00
1
Step 170000
Ar 8.748385e-01 0.000000e+00 0.000000e+00
1
Step 171000
Ar 6.740972e-01 0.000000e+00 0.000000e+00
1
Step 172000
Ar 5.550816e-01 0.000000e+00 0.000000e+00
1
Step 173000
Ar 6.052482e-01 0.000000e+00 0.000000e+00
1
Step 174000
Ar 7.238422e-01 0.000000e+00 0.000000e+00
1
Step 175000
Ar 1.021973e+00 0.000000e+00 0.000000e+00
1
Step 176000
Ar 1.181144e+00 0.000000e+00 0.000000e+00
1
Step 177000
Ar 1.319315e+00 0.000000e+00 0.000000e+00
1
Step 178000
Ar 1.273673e+00 0.000000e+00 0.000000e+00
1
Step 179000
Ar 1.294850e+00 0.000000e+00 0.000000e+00
1
Step 180000
Ar 1.286196e+00 0.000000e+00 0.000000e+00
1
Step 181000
Ar 1.236131e+00 0.000000e+00 0.000000e+00
1
Step 182000
Ar 1.243165e+00 0.000000e+00 0.000000e+00
1
Step 183000
Ar 1.209556e+00 0.000000e+00 0.000000e+00
1
Step 184000
Ar 1.385888e+00 0.000000e+00 0.000000e+00
1
Step 185000
Ar 1.208024e+00 0.000000e+00 0.000000e+00
1
Step 186000
Ar 1.139647e+00 0.000000e+00 0.000000e+00
1
Step 187000
Ar 1.156263e+00 0.000000e+00 0.000000e+00
1
Step 188000
Ar 1.136131e+00 0.000000e+00 0.000000e+00
1
Step 189000
Ar 1.111664e+00 0.000000e+00 0.000000e+00
1
Step 190000
Ar 1.131033e+00 0.000000e+00 0.000000e+00
1
Step 191000
Ar 1.130154e+00 0.000000e+00 0.000000e+00
1
Step 192000
Ar 6.454228e-01 0.000000e+00 0.000000e+00
1
Step 193000
Ar 4.793722e-01 0.000000e+00 0.000000e+00
1
Step 194000
Ar 5.222794e-01 0.000000e+00 0.000000e+00
1
Step 195000
Ar -4.274307e-01 0.000000e+00 0.000000e+00
1
Step 196000
Ar -1.043910e+00 0.000000e+00 0.000000e+00
1
Step 197000
Ar -1.105849e+00 0.000000e+00 0.000000e+00
1
Step 198000
Ar -1.081124e+00 0.000000e+00 0.000000e+00
1
Step 199000
Ar -1.118208e+00 0.000000e+00 0.000000e+00
1
Step 200000
Ar -8.920956e-01 0.000000e+00 0.000000e+00
1
Step 201000
Ar -9.435478e-01 0.000000e+00 0.000000e+00
1
Step 202000
Ar -1.070072e+00 0.000000e+00 0.000000e+00
1
Step 203000
Ar -1.096213e+00 0.000000e+00 0.000000e+00
1
Step 204000
Ar -1.025213e+00 0.000000e+00 0.000000e+00
1
Step 205000
Ar -1.055540e+00 0.000000e+00 0.000000e+00
1
Step 206000
Ar -8.816098e-01 0.000000e+00 0.000000e+00
1
Step 207000
Ar -7.996190e-01 0.000000e+00 0.000000e+00
1
Step 208000
Ar -8.521841e-01 0.000000e+00 0.000000e+00
1
Step 209000
Ar -8.439195e-01 0.000000e+00 0.000000e+00
1
Step 210000
Ar -7.803402e-01 0.000000e+00 0.000000e+00
1
Step 211000
Ar -8.145266e-01 0.000000e+00 0.000000e+00
1
Step 212000
Ar -4.836478e-01 0.000000e+00 0.000000e+00
1
Step 213000
Ar -7.106434e-01 0.000000e+00 0.000000e+00
1
Step 214000
Ar -8.345365e-01 0.000000e+00 0.000000e+00
1
Step 215000
Ar -7.259644e-01 0.000000e+00 0.000000e+00
1
Step 216000
Ar -7.603593e-01 0.000000e+00 0.000000e+00
1
Step 217000
Ar -6.911293e-01 0.000000e+00 0.000000e+00
1
Step 218000
Ar -6.580483e-01 0.000000e+00 0.000000e+00
1
Step 219000
Ar -5.771999e-01 0.000000e+00 0.000000e+00
1
Step 220000
Ar -6.482030e-01 0.000000e+00 0.000000e+00
1
Step 221000
Ar -6.217099e-01 0.000000e+00 0.000000e+00
1
Step 222000
Ar -5.888590e-01 0.000000e+00 0.000000e+00
1
Step 223000
Ar -6.392555e-01 0.000000e+00 0.000000e+00
1
Step 224000
Ar -6.029899e-01 0.000000e+00 0.000000e+00
1
Step 225000
Ar -5.552057e-01 0.000000e+00 0.000000e+00
1
Step 226000
Ar -6.277868e-01 0.000000e+00 0.000000e+00
1
Step 227000
Ar -5.360964e-01 0.000000e+00 0.000000e+00
1
Step 228000
Ar -5.608051e-01 0.000000e+00 0.000000e+00
1
Step 229000
Ar -5.963180e-01 0.000000e+00 0.000000e+00
1
Step 230000
Ar -7.869397e-01 0.000000e+00 0.000000e+00
1
Step 231000
Ar -9.983094e-01 0.000000e+00 0.000000e+00
1
Step 232000
Ar -9.685822e-01 0.000000e+00 0.000000e+00
1
Step 233000
Ar -9.805147e-01 0.000000e+00 0.000000e+00
1
Step 234000
Ar -9.598323e-01 0.000000e+00 0.000000e+00
1
Step 235000
Ar -9.039900e-01 0.000000e+00 0.000000e+00
1
Step 236000
Ar -9.258372e-01 0.000000e+00 0.000000e+00
1
Step 237000
Ar -1.191772e+00 0.000000e+00 0.000000e+00
1
Step 238000
Ar -1.253401e+00 0.000000e+00 0.000000e+00
1
Step 239000
Ar -1.013360e+00 0.000000e+00 0.000000e+00
1
Step 240000
Ar -9.334965e-01 0.000000e+00 0.000000e+00
1
Step 241000
Ar -1.136732e+00 0.000000e+00 0.000000e+00
1
Step 242000
Ar -1.006876e+00 0.000000e+00 0.000000e+00
1
Step 243000
Ar -1.179240e+00 0.000000e+00 0.000000e+00
1
Step 244000
Ar -1.170020e+00 0.000000e+00 0.000000e+00
1
Step 245000
Ar -1.126737e+00 0.000000e+00 0.000000e+00
1
Step 246000
Ar -1.064380e+00 0.000000e+00 0.000000e+00
1
Step 247000
Ar -1.295849e+00 0.000000e+00 0.000000e+00
1
Step 248000
Ar -1.154489e+00 0.000000e+00 0.000000e+00
1
Step 249000
Ar -1.140649e+00 0.000000e+00 0.000000e+00
1
Step 250000
Ar -1.236178e+00 0.000000e+00 0.000000e+00
1
Step 251000
Ar -1.210771e+00 0.000000e+00 0.000000e+00
1
Step 252000
Ar -1.160378e+00 0.000000e+00 0.000000e+00
1
Step 253000
Ar -1.278674e+00 0.000000e+00 0.000000e+00
1
Step 254000
Ar -1.227012e+00 0.000000e+00 0.000000e+00
1
Step 255000
Ar -1.265808e+00 0.000000e+00 0.000000e+00
1
Step 256000
Ar -1.315303e+00 0.000000e+00 0.000000e+00
1
Step 257000
Ar -1.218134e+00 0.000000e+00 0.000000e+00
1
Step 258000
Ar -6.131574e-01 0.000000e+00 0.000000e+00
1
Step 259000
Ar -8.684442e-01 0.000000e+00 0.000000e+00
1
Step 260000
Ar -1.088046e+00 0.000000e+00 0.000000e+00
1
Step 261000
Ar -1.105597e+00 0.000000e+00 0.000000e+00
1
Step 262000
Ar -1.027271e+00 0.000000e+00 0.000000e+00
1
Step 263000
Ar -9.832735e-01 0.000000e+00 0.000000e+00
1
Step 264000
Ar -9.145039e-01 0.000000e+00 0.000000e+00
1
Step 265000
Ar -8.597460e-01 0.000000e+00 0.000000e+00
1
Step 266000
Ar -8.228835e-01 0.000000e+00 0.000000e+00
1
Step 267000
Ar -7.039581e-01 0.000000e+00 0.000000e+00
1
Step 268000
Ar -6.707277e-01 0.000000e+00 0.000000e+00
1
Step 269000
Ar -6.821692e-01 0.000000e+00 0.000000e+00
1
Step 270000
Ar -7.455719e-01 0.000000e+00 0.000000e+00
1
Step 271000
Ar -7.504801e-01 0.000000e+00 0.000000e+00
1
Step 272000
Ar -7.690394e-01 0.000000e+00 0.000000e+00
1
Step 273000
Ar -9.489231e-01 0.000000e+00 0.000000e+00
1
Step 274000
Ar -8.747225e-01 0.000000e+00 0.000000e+00
1
Step 275000
Ar -9.379748e-01 0.000000e+00 0.000000e+00
1
Step 276000
Ar -9.572606e-01 0.000000e+00 0.000000e+00
1
Step 277000
Ar -7.346709e-01 0.000000e+00 0.000000e+00
1
Step 278000
Ar -6.582993e-01 0.000000e+00 0.000000e+00
1
Step 279000
Ar -5.227456e-01 0.000000e+00 0.000000e+00
1
Step 280000
Ar -4.938700e-01 0.000000e+00 0.000000e+00
1
Step 281000
Ar -3.371697e-01 0.000000e+00 0.000000e+00
1
Step 282000
Ar -3.957023e-01 0.000000e+00 0.000000e+00
1
Step 283000
Ar -3.672488e-01 0.000000e+00 0.000000e+00
1
Step 284000
Ar -5.408994e-01 0.000000e+00 0.000000e+00
1
Step 285000
Ar -3.496086e-01 0.000000e+00 0.000000e+00
1
Step 286000
Ar -4.591025e-01 0.000000e+00 0.000000e+00
1
Step 287000
Ar -5.054684e-01 0.000000e+00 0.000000e+00
1
Step 288000
Ar -4.044655e-01 0.000000e+00 0.000000e+00
1
Step 289000
Ar 4.353610e-01 0.000000e+00 0.000000e+00
1
Step 290000
Ar 4.143764e-01 0.000000e+00 0.000000e+00
1
Step 291000
Ar 3.017845e-01 0.000000e+00 0.000000e+00
1
Step 292000
Ar -2.827583e-01 0.000000e+00 0.000000e+00
1
Step 293000
Ar 3.816700e-01 0.000000e+00 0.000000e+00
1
Step 294000
Ar -1.586740e-01 0.000000e+00 0.000000e+00
1
Step 295000
Ar -2.093014e-01 0.000000e+00 0.000000e+00
1
Step 296000
Ar -2.593610e-01 0.000000e+00 0.000000e+00
1
Step 297000
Ar -3.251996e-01 0.000000e+00 0.000000e+00
1
Step 298000
Ar -2.943775e-01 0.000000e+00 0.000000e+00
1
Step 299000
Ar -3.750311e-01 0.000000e+00 0.000000e+00
1
Step 300000
Ar -3.863337e-01 0.000000e+00 0.000000e+00
1
Step 301000
Ar -5.734142e-01 0.000000e+00 0.000000e+00
1
Step 302000
Ar -4.177867e-01 0.000000e+00 0.000000e+00
1
Step 303000
Ar -4.708637e-01 0.000000e+00 0.000000e+00
1
Step 304000
Ar -4.421012e-01 0.000000e+00 0.000000e+00
1
Step 305000
Ar -5.160163e-01 0.000000e+00 0.000000e+00
1
Step 306000
Ar -5.824117e-01 0.000000e+00 0.000000e+00
1
Step 307000
Ar -8.357463e-01 0.000000e+00 0.000000e+00
1
Step 308000
Ar -9.212614e-01 0.000000e+00 0.000000e+00
1
Step 309000
Ar -9.004816e-01 0.000000e+00 0.000000e+00
1
Step 310000
Ar -1.172233e+00 0.000000e+00 0.000000e+00
1
Step 311000
Ar -1.342177e+00 0.000000e+00 0.000000e+00
1
Step 312000
Ar -1.306760e+00 0.000000e+00 0.000000e+00
1
Step 313000
Ar -1.149172e+00 0.000000e+00 0.000000e+00
1
Step 314000
Ar -1.111638e+00 0.000000e+00 0.000000e+00
1
Step 315000
Ar -1.288603e+00 0.000000e+00 0.000000e+00
1
Step 316000
Ar -1.245982e+00 0.000000e+00 0.000000e+00
1
Step 317000
Ar -1.200482e+00 0.000000e+00 0.000000e+00
1
Step 318000
Ar -1.202843e+00 0.000000e+00 0.000000e+00
1
Step 319000
Ar -1.394190e+00 0.000000e+00 0.000000e+00
1
Step 320000
Ar -1.419180e+00 0.000000e+00 0.000000e+00
1
Step 321000
Ar -1.387909e+00 0.000000e+00 0.000000e+00
1
Step 322000
Ar -1.371663e+00 0.000000e+00 0.000000e+00
1
Step 323000
Ar -1.329375e+00 0.000000e+00 0.000000e+00
1
Step 324000
Ar -1.233240e+00 0.000000e+00 0.000000e+00
1
Step 325000
Ar -1.268580e+00 0.000000e+00 0.000000e+00
1
Step 326000
Ar -1.362883e+00 0.000000e+00 0.000000e+00
1
Step 327000
Ar -1.035763e+00 0.000000e+00 0.000000e+00
1
Step 328000
Ar -1.051097e+00 0.000000e+00 0.000000e+00
1
Step 329000
Ar -8.844359e-01 0.000000e+00 0.000000e+00
1
Step 330000
Ar -9.178488e-01 0.000000e+00 0.000000e+00
1
Step 331000
Ar -6.825936e-01 0.000000e+00 0.000000e+00
1
Step 332000
Ar -7.414397e-01 0.000000e+00 0.000000e+00
1
Step 333000
Ar -7.172589e-01 0.000000e+00 0.000000e+00
1
Step 334000
Ar -7.211541e-01 0.000000e+00 0.000000e+00
1
Step 335000
Ar -6.693707e-01 0.000000e+00 0.000000e+00
1
Step 336000
Ar -6.357020e-01 0.000000e+00 0.000000e+00
1
Step 337000
Ar -6.176356e-01 0.000000e+00 0.000000e+00
1
Step 338000
Ar -5.262021e-01 0.000000e+00 0.000000e+00
1
Step 339000
Ar -6.981404e-01 0.000000e+00 0.000000e+00
1
Step 340000
Ar -7.904111e-01 0.000000e+00 0.000000e+00
1
Step 341000
Ar -8.083831e-01 0.000000e+00 0.000000e+00
1
Step 342000
Ar -7.928045e-01 0.000000e+00 0.000000e+00
1
Step 343000
Ar -8.509475e-01 0.000000e+00 0.000000e+00
1
Step 344000
Ar -8.396117e-01 0.000000e+00 0.000000e+00
1
Step 345000
Ar -1.077976e+00 0.000000e+00 0.000000e+00
1
Step 346000
Ar -1.004492e+00 0.000000e+00 0.000000e+00
1
Step 347000
Ar -1.015794e+00 0.000000e+00 0.000000e+00
1
Step 348000
Ar -1.213168e+00 0.000000e+00 0.000000e+00
1
Step 349000
Ar -1.347957e+00 0.000000e+00 0.000000e+00
1
Step 350000
Ar -1.253276e+00 0.000000e+00 0.000000e+00
1
Step 351000
Ar -1.244085e+00 0.000000e+00 0.000000e+00
1
Step 352000
Ar -9.512194e-01 0.000000e+00 0.000000e+00
1
Step 353000
Ar -8.579835e-01 0.000000e+00 0.000000e+00
1
Step 354000
Ar -9.845370e-01 0.000000e+00 0.000000e+00
1
Step 355000
Ar -1.051050e+00 0.000000e+00 0.000000e+00
1
Step 356000
Ar -1.091973e+00 0.000000e+00 0.000000e+00
1
Step 357000
Ar -1.060163e+00 0.000000e+00 0.000000e+00
1
Step 358000
Ar -1.177432e+00 0.000000e+00 0.000000e+00
1
Step 359000
Ar -1.123590e+00 0.000000e+00 0.000000e+00
1
Step 360000
Ar -1.130994e+00 0.000000e+00 0.000000e+00
1
Step 361000
Ar -9.936894e-01 0.000000e+00 0.000000e+00
1
Step 362000
Ar -1.037896e+00 0.000000e+00 0.000000e+00
1
Step 363000
Ar -9.065633e-01 0.000000e+00 0.000000e+00
1
Step 364000
Ar -1.075077e+00 0.000000e+00 0.000000e+00
1
Step 365000
Ar -1.170149e+00 0.000000e+00 0.000000e+00
1
Step 366000
Ar -8.920551e-01 0.000000e+00 0.000000e+00
1
Step 367000
Ar -8.708609e-01 0.000000e+00 0.000000e+00
1
Step 368000
Ar -1.016115e+00 0.000000e+00 0.000000e+00
1
Step 369000
Ar -1.031322e+00 0.000000e+00 0.000000e+00
1
Step 370000
Ar -1.101250e+00 0.000000e+00 0.000000e+00
1
Step 371000
Ar -6.920110e-01 0.000000e+00 0.000000e+00
1
Step 372000
Ar -1.162646e+00 0.000000e+00 0.000000e+00
1
Step 373000
Ar -1.130539e+00 0.000000e+00 0.000000e+00
1
Step 374000
Ar -1.147040e+00 0.000000e+00 0.000000e+00
1
Step 375000
Ar -1.154197e+00 0.000000e+00 0.000000e+00
1
Step 376000
Ar -9.653024e-01 0.000000e+00 0.000000e+00
1
Step 377000
Ar -9.735348e-01 0.000000e+00 0.000000e+00
1
Step 378000
Ar -8.827766e-01 0.000000e+00 0.000000e+00
1
Step 379000
Ar -9.980529e-01 0.000000e+00 0.000000e+00
1
Step 380000
Ar -1.046061e+00 0.000000e+00 0.000000e+00
1
Step 381000
Ar -9.372441e-01 0.000000e+00 0.000000e+00
1
Step 382000
Ar -9.697329e-01 0.000000e+00 0.000000e+00
1
Step 383000
Ar -1.141440e+00 0.000000e+00 0.000000e+00
1
Step 384000
Ar -1.068551e+00 0.000000e+00 0.000000e+00
1
Step 385000
Ar -9.227892e-01 0.000000e+00 0.000000e+00
1
Step 386000
Ar -6.481152e-01 0.000000e+00 0.000000e+00
1
Step 387000
Ar -2.749804e-01 0.000000e+00 0.000000e+00
1
Step 388000
Ar 1.615849e-01 0.000000e+00 0.000000e+00
1
Step 389000
Ar 3.358240e-01 0.000000e+00 0.000000e+00
1
Step 390000
Ar 3.498295e-01 0.000000e+00 0.000000e+00
1
Step 391000
Ar 8.291706e-01 0.000000e+00 0.000000e+00
1
Step 392000
Ar 8.158665e-01 0.000000e+00 0.000000e+00
1
Step 393000
Ar 7.671389e-01 0.000000e+00 0.000000e+00
1
Step 394000
Ar 7.367262e-01 0.000000e+00 0.000000e+00
1
Step 395000
Ar 7.893831e-01 0.000000e+00 0.000000e+00
1
Step 396000
Ar 7.612783e-01 0.000000e+00 0.000000e+00
1
Step 397000
Ar 6.979853e-01 0.000000e+00 0.000000e+00
1
Step 398000
Ar 8.659394e-01 0.000000e+00 0.000000e+00
1
Step 399000
Ar 8.531759e-01 0.000000e+00 0.000000e+00
1
Step 400000
Ar 9.486330e-01 0.000000e+00 0.000000e+00
1
Step 401000
Ar 9.025483e-01 0.000000e+00 0.000000e+00
1
Step 402000
Ar 8.369132e-01 0.000000e+00 0.000000e+00
1
Step 403000
Ar 9.629640e-01 0.000000e+00 0.000000e+00
1
Step 404000
Ar 9.246635e-01 0.000000e+00 0.000000e+00
1
Step 405000
Ar 8.952405e-01 0.000000e+00 0.000000e+00
1
Step 406000
Ar 9.883196e-01 0.000000e+00 0.000000e+00
1
Step 407000
Ar 8.612727e-01 0.000000e+00 0.000000e+00
1
Step 408000
Ar 8.034530e-01 0.000000e+00 0.000000e+00
1
Step 409000
Ar 8.522648e-01 0.000000e+00 0.000000e+00
1
Step 410000
Ar 5.884273e-01 0.000000e+00 0.000000e+00
1
Step 411000
Ar 5.734478e-01 0.000000e+00 0.000000e+00
1
Step 412000
Ar 6.283007e-01 0.000000e+00 0.000000e+00
1
Step 413000
Ar 6.123684e-01 0.000000e+00 0.000000e+00
1
Step 414000
Ar 4.544936e-01 0.000000e+00 0.000000e+00
1
Step 415000
Ar 4.453741e-01 0.000000e+00 0.000000e+00
1
Step 416000
Ar 3.644312e-01 0.000000e+00 0.000000e+00
1
Step 417000
Ar 9.652221e-01 0.000000e+00 0.000000e+00
1
Step 418000
Ar 1.048798e+00 0.000000e+00 0.000000e+00
1
Step 419000
Ar 9.952153e-01 0.000000e+00 0.000000e+00
1
Step 420000
Ar 1.113402e+00 0.000000e+00 0.000000e+00
1
Step 421000
Ar 1.071172e+00 0.000000e+00 0.000000e+00
1
Step 422000
Ar 1.007107e+00 0.000000e+00 0.000000e+00
1
Step 423000
Ar 1.052793e+00 0.000000e+00 0.000000e+00
1
Step 424000
Ar 1.085745e+00 0.000000e+00 0.000000e+00
1
Step 425000
Ar 1.120599e+00 0.000000e+00 0.000000e+00
1
Step 426000
Ar 9.315888e-01 0.000000e+00 0.000000e+00
1
Step 427000
Ar 9.169007e-01 0.000000e+00 0.000000e+00
1
Step 428000
Ar 8.794749e-01 0.000000e+00 0.000000e+00
1
Step 429000
Ar 8.999528e-01 0.000000e+00 0.000000e+00
1
Step 430000
Ar 9.111099e-01 0.000000e+00 0.000000e+00
1
Step 431000
Ar 7.465463e-01 0.000000e+00 0.000000e+00
1
Step 432000
Ar 8.158401e-01 0.000000e+00 0.000000e+00
1
Step 433000
Ar 5.631650e-01 0.000000e+00 0.000000e+00
1
Step 434000
Ar 4.705054e-01 0.000000e+00 0.000000e+00
1
Step 435000
Ar 8.015815e-01 0.000000e+00 0.000000e+00
1
Step 436000
Ar 5.125814e-01 0.000000e+00 0.000000e+00
1
Step 437000
Ar 5.442642e-01 0.000000e+00 0.000000e+00
1
Step 438000
Ar 5.960884e-01 0.000000e+00 0.000000e+00
1
Step 439000
Ar 6.254751e-01 0.000000e+00 0.000000e+00
1
Step 440000
Ar 1.729861e-01 0.000000e+00 0.000000e+00
1
Step 441000
Ar 1.232193e-01 0.000000e+00 0.000000e+00
1
Step 442000
Ar -6.202681e-02 0.000000e+00 0.000000e+00
1
Step 443000
Ar -2.738096e-04 0.000000e+00 0.000000e+00
1
Step 444000
Ar -4.024305e-02 0.000000e+00 0.000000e+00
1
Step 445000
Ar -2.379101e-02 0.000000e+00 0.000000e+00
1
Step 446000
Ar -1.387230e-01 0.000000e+00 0.000000e+00
1
Step 447000
Ar -1.868826e-01 0.000000e+00 0.000000e+00
1
Step 448000
Ar -2.349771e-01 0.000000e+00 0.000000e+00
1
Step 449000
Ar -1.942103e-01 0.000000e+00 0.000000e+00
1
Step 450000
Ar -2.458820e-01 0.000000e+00 0.000000e+00
1
Step 451000
Ar -2.246243e-01 0.000000e+00 0.000000e+00
1
Step 452000
Ar -4.482312e-01 0.000000e+00 0.000000e+00
1
Step 453000
Ar -5.081641e-01 0.000000e+00 0.000000e+00
1
Step 454000
Ar -3.079632e-01 0.000000e+00 0.000000e+00
1
Step 455000
Ar -7.183078e-02 0.000000e+00 0.000000e+00
1
Step 456000
Ar 4.547438e-02 0.000000e+00 0.000000e+00
1
Step 457000
Ar 1.042867e-01 0.000000e+00 0.000000e+00
1
Step 458000
Ar 2.370079e-02 0.000000e+00 0.000000e+00
1
Step 459000
Ar 5.920881e-02 0.000000e+00 0.000000e+00
1
Step 460000
Ar -1.213803e-01 0.000000e+00 0.000000e+00
1
Step 461000
Ar -9.692515e-02 0.000000e+00 0.000000e+00
1
Step 462000
Ar -1.472075e-01 0.000000e+00 0.000000e+00
1
Step 463000
Ar -1.712339e-01 0.000000e+00 0.000000e+00
1
Step 464000
Ar -4.666517e-01 0.000000e+00 0.000000e+00
1
Step 465000
Ar -4.900249e-01 0.000000e+00 0.000000e+00
1
Step 466000
Ar -4.360014e-01 0.000000e+00 0.000000e+00
1
Step 467000
Ar -3.517569e-01 0.000000e+00 0.000000e+00
1
Step 468000
Ar -3.783771e-01 0.000000e+00 0.000000e+00
1
Step 469000
Ar -2.712748e-01 0.000000e+00 0.000000e+00
1
Step 470000
Ar -2.537232e-01 0.000000e+00 0.000000e+00
1
Step 471000
Ar -2.152494e-01 0.000000e+00 0.000000e+00
1
Step 472000
Ar -3.157909e-01 0.000000e+00 0.000000e+00
1
Step 473000
Ar -3.320200e-01 0.000000e+00 0.000000e+00
1
Step 474000
Ar -3.175100e-01 0.000000e+00 0.000000e+00
1
Step 475000
Ar -3.614242e-01 0.000000e+00 0.000000e+00
1
Step 476000
Ar -5.711340e-01 0.000000e+00 0.000000e+00
1
Step 477000
Ar -4.257287e-01 0.000000e+00 0.000000e+00
1
Step 478000
Ar -4.079404e-01 0.000000e+00 0.000000e+00
1
Step 479000
Ar -4.122814e-01 0.000000e+00 0.000000e+00
1
Step 480000
Ar -4.551250e-01 0.000000e+00 0.000000e+00
1
Step 481000
Ar -5.495097e-01 0.000000e+00 0.000000e+00
1
Step 482000
Ar -4.986930e-01 0.000000e+00 0.000000e+00
1
Step 483000
Ar -5.650364e-01 0.000000e+00 0.000000e+00
1
Step 484000
Ar -5.048378e-01 0.000000e+00 0.000000e+00
1
Step 485000
Ar 6.813933e-01 0.000000e+00 0.000000e+00
1
Step 486000
Ar 7.788493e-01 0.000000e+00 0.000000e+00
1
Step 487000
Ar 8.847285e-01 0.000000e+00 0.000000e+00
1
Step 488000
Ar 9.489830e-01 0.000000e+00 0.000000e+00
1
Step 489000
Ar 9.215055e-01 0.000000e+00 0.000000e+00
1
Step 490000
Ar 1.027897e+00 0.000000e+00 0.000000e+00
1
Step 491000
Ar 9.800545e-01 0.000000e+00 0.000000e+00
1
Step 492000
Ar 1.042604e+00 0.000000e+00 0.000000e+00
1
Step 493000
Ar 9.897662e-01 0.000000e+00 0.000000e+00
1
Step 494000
Ar 1.098622e+00 0.000000e+00 0.000000e+00
1
Step 495000
Ar 9.979228e-01 0.000000e+00 0.000000e+00
1
Step 496000
Ar 8.701953e-01 0.000000e+00 0.000000e+00
1
Step 497000
Ar 8.419229e-01 0.000000e+00 0.000000e+00
1
Step 498000
Ar 8.315985e-01 0.000000e+00 0.000000e+00
1
Step 499000
Ar 8.933511e-01 0.000000e+00 0.000000e+00
1
Step 500000
Ar 7.611081e-01 0.000000e+00 0.000000e+00
1
Step 501000
Ar 6.851623e-01 0.000000e+00 0.000000e+00
1
Step 502000
Ar 5.783341e-01 0.000000e+00 0.000000e+00
1
Step 503000
Ar 6.205709e-01 0.000000e+00 0.000000e+00
1
Step 504000
Ar 3.736950e-01 0.000000e+00 0.000000e+00
1
Step 505000
Ar 5.001648e-01 0.000000e+00 0.000000e+00
1
Step 506000
Ar 5.035972e-01 0.000000e+00 0.000000e+00
1
Step 507000
Ar 5.453801e-01 0.000000e+00 0.000000e+00
1
Step 508000
Ar 6.136685e-01 0.000000e+00 0.000000e+00
1
Step 509000
Ar 6.620353e-01 0.000000e+00 0.000000e+00
1
Step 510000
Ar 6.701046e-01 0.000000e+00 0.000000e+00
1
Step 511000
Ar 5.956199e-01 0.000000e+00 0.000000e+00
1
Step 512000
Ar 5.529466e-01 0.000000e+00 0.000000e+00
1
Step 513000
Ar 5.660240e-01 0.000000e+00 0.000000e+00
1
Step 514000
Ar 5.827662e-01 0.000000e+00 0.000000e+00
1
Step 515000
Ar 3.886832e-01 0.000000e+00 0.000000e+00
1
Step 516000
Ar 3.993210e-01 0.000000e+00 0.000000e+00
1
Step 517000
Ar 4.665607e-01 0.000000e+00 0.000000e+00
1
Step 518000
Ar 4.277497e-01 0.000000e+00 0.000000e+00
1
Step 519000
Ar 4.244330e-01 0.000000e+00 0.000000e+00
1
Step 520000
Ar 3.239303e-01 0.000000e+00 0.000000e+00
1
Step 521000
Ar 2.168268e-01 0.000000e+00 0.000000e+00
1
Step 522000
Ar 2.747893e-01 0.000000e+00 0.000000e+00
1
Step 523000
Ar 3.127564e-01 0.000000e+00 0.000000e+00
1
Step 524000
Ar 2.530171e-01 0.000000e+00 0.000000e+00
1
Step 525000
Ar 2.625392e-01 0.000000e+00 0.000000e+00
1
Step 526000
Ar 2.885726e-01 0.000000e+00 0.000000e+00
1
Step 527000
Ar 1.817595e-01 0.000000e+00 0.000000e+00
1
Step 528000
Ar 5.333116e-01 0.000000e+00 0.000000e+00
1
Step 529000
Ar 5.215365e-01 0.000000e+00 0.000000e+00
1
Step 530000
Ar 5.095621e-01 0.000000e+00 0.000000e+00
1
Step 531000
Ar 5.371437e-01 0.000000e+00 0.000000e+00
1
Step 532000
Ar 9.610569e-02 0.000000e+00 0.000000e+00
1
Step 533000
Ar -1.138720e-01 0.000000e+00 0.000000e+00
1
Step 534000
Ar -2.992145e-01 0.000000e+00 0.000000e+00
1
Step 535000
Ar 9.231592e-03 0.000000e+00 0.000000e+00
1
Step 536000
Ar 7.300092e-02 0.000000e+00 0.000000e+00
1
Step 537000
Ar 8.699119e-02 0.000000e+00 0.000000e+00
1
Step 538000
Ar 3.161923e-02 0.000000e+00 0.000000e+00
1
Step 539000
Ar -2.346760e-01 0.000000e+00 0.000000e+00
1
Step 540000
Ar -2.638248e-01 0.000000e+00 0.000000e+00
1
Step 541000
Ar -1.295225e-01 0.000000e+00 0.000000e+00
1
Step 542000
Ar 2.359470e-01 0.000000e+00 0.000000e+00
1
Step 543000
Ar 4.045403e-01 0.000000e+00 0.000000e+00
1
Step 544000
Ar 2.397727e-01 0.000000e+00 0.000000e+00
1
Step 545000
Ar 3.498970e-01 0.000000e+00 0.000000e+00
1
Step 546000
Ar 3.209940e-01 0.000000e+00 0.000000e+00
1
Step 547000
Ar 3.390916e-01 0.000000e+00 0.000000e+00
1
Step 548000
Ar 3.714170e-01 0.000000e+00 0.000000e+00
1
Step 549000
Ar 4.899998e-01 0.000000e+00 0.000000e+00
1
Step 550000
Ar 3.900196e-01 0.000000e+00 0.000000e+00
1
Step 551000
Ar 4.485590e-01 0.000000e+00 0.000000e+00
1
Step 552000
Ar 4.563052e-01 0.000000e+00 0.000000e+00
1
Step 553000
Ar 4.780229e-01 0.000000e+00 0.000000e+00
1
Step 554000
Ar 1.275672e-01 0.000000e+00 0.000000e+00
1
Step 555000
Ar 1.425433e-01 0.000000e+00 0.000000e+00
1
Step 556000
Ar 1.457470e-01 0.000000e+00 0.000000e+00
1
Step 557000
Ar 1.935743e-01 0.000000e+00 0.000000e+00
1
Step 558000
Ar 2.050746e-01 0.000000e+00 0.000000e+00
1
Step 559000
Ar 2.262380e-01 0.000000e+00 0.000000e+00
1
Step 560000
Ar 2.077840e-01 0.000000e+00 0.000000e+00
1
Step 561000
Ar 2.947256e-01 0.000000e+00 0.000000e+00
1
Step 562000
Ar 2.729250e-01 0.000000e+00 0.000000e+00
1
Step 563000
Ar 4.604555e-01 0.000000e+00 0.000000e+00
1
Step 564000
Ar 4.878453e-01 0.000000e+00 0.000000e+00
1
Step 565000
Ar 4.681493e-01 0.000000e+00 0.000000e+00
1
Step 566000
Ar -1.096934e-01 0.000000e+00 0.000000e+00
1
Step 567000
Ar -1.003360e-02 0.000000e+00 0.000000e+00
1
Step 568000
Ar 3.980169e-02 0.000000e+00 0.000000e+00
1
Step 569000
Ar 4.955651e-02 0.000000e+00 0.000000e+00
1
Step 570000
Ar 1.125158e-01 0.000000e+00 0.000000e+00
1
Step 571000
Ar 1.583514e-01 0.000000e+00 0.000000e+00
1
Step 572000
Ar 6.701623e-02 0.000000e+00 0.000000e+00
1
Step 573000
Ar 1.386522e-01 0.000000e+00 0.000000e+00
1
Step 574000
Ar -7.998856e-02 0.000000e+00 0.000000e+00
1
Step 575000
Ar -3.604069e-02 0.000000e+00 0.000000e+00
1
Step 576000
Ar 8.690526e-02 0.000000e+00 0.000000e+00
1
Step 577000
Ar 1.341810e-01 0.000000e+00 0.000000e+00
1
Step 578000
Ar -9.021356e-02 0.000000e+00 0.000000e+00
1
Step 579000
Ar -5.172879e-02 0.000000e+00 0.000000e+00
1
Step 580000
Ar -4.586649e-02 0.000000e+00 0.000000e+00
1
Step 581000
Ar -1.761711e-01 0.000000e+00 0.000000e+00
1
Step 582000
Ar -3.030055e-01 0.000000e+00 0.000000e+00
1
Step 583000
Ar -3.965216e-01 0.000000e+00 0.000000e+00
1
Step 584000
Ar -3.441796e-01 0.000000e+00 0.000000e+00
1
Step 585000
Ar -4.740302e-01 0.000000e+00 0.000000e+00
1
Step 586000
Ar -4.838273e-01 0.000000e+00 0.000000e+00
1
Step 587000
Ar -3.866191e-01 0.000000e+00 0.000000e+00
1
Step 588000
Ar -4.171356e-01 0.000000e+00 0.000000e+00
1
Step 589000
Ar -4.642739e-01 0.000000e+00 0.000000e+00
1
Step 590000
Ar -4.511343e-01 0.000000e+00 0.000000e+00
1
Step 591000
Ar -4.245573e-01 0.000000e+00 0.000000e+00
1
Step 592000
Ar -8.112989e-01 0.000000e+00 0.000000e+00
1
Step 593000
Ar -7.618616e-01 0.000000e+00 0.000000e+00
1
Step 594000
Ar -7.747528e-01 0.000000e+00 0.000000e+00
1
Step 595000
Ar -7.365040e-01 0.000000e+00 0.000000e+00
1
Step 596000
Ar -7.280264e-01 0.000000e+00 0.000000e+00
1
Step 597000
Ar -8.248659e-01 0.000000e+00 0.000000e+00
1
Step 598000
Ar -8.198522e-01 0.000000e+00 0.000000e+00
1
Step 599000
Ar -8.318243e-01 0.000000e+00 0.000000e+00
1
Step 600000
Ar -5.939641e-01 0.000000e+00 0.000000e+00
1
Step 601000
Ar -6.343947e-01 0.000000e+00 0.000000e+00
1
Step 602000
Ar -6.045146e-01 0.000000e+00 0.000000e+00
1
Step 603000
Ar -6.289671e-01 0.000000e+00 0.000000e+00
1
Step 604000
Ar -7.033996e-01 0.000000e+00 0.000000e+00
1
Step 605000
Ar -8.037050e-01 0.000000e+00 0.000000e+00
1
Step 606000
Ar -8.067246e-01 0.000000e+00 0.000000e+00
1
Step 607000
Ar -7.418435e-01 0.000000e+00 0.000000e+00
1
Step 608000
Ar -8.594973e-01 0.000000e+00 0.000000e+00
1
Step 609000
Ar -8.982596e-01 0.000000e+00 0.000000e+00
1
Step 610000
Ar -1.119538e+00 0.000000e+00 0.000000e+00
1
Step 611000
Ar -1.089928e+00 0.000000e+00 0.000000e+00
1
Step 612000
Ar -9.956794e-01 0.000000e+00 0.000000e+00
1
Step 613000
Ar -9.916563e-01 0.000000e+00 0.000000e+00
1
Step 614000
Ar -9.797626e-01 0.000000e+00 0.000000e+00
1
Step 615000
Ar -9.514597e-01 0.000000e+00 0.000000e+00
1
Step 616000
Ar -8.816597e-01 0.000000e+00 0.000000e+00
1
Step 617000
Ar -7.551740e-01 0.000000e+00 0.000000e+00
1
Step 618000
Ar -7.907232e-01 0.000000e+00 0.000000e+00
1
Step 619000
Ar -7.726524e-01 0.000000e+00 0.000000e+00
1
Step 620000
Ar -7.683827e-01 0.000000e+00 0.000000e+00
1
Step 621000
Ar -7.979933e-01 0.000000e+00 0.000000e+00
1
Step 622000
Ar -8.147984e-01 0.000000e+00 0.000000e+00
1
Step 623000
Ar -7.144576e-01 0.000000e+00 0.000000e+00
1
Step 624000
Ar -6.614841e-01 0.000000e+00 0.000000e+00
1
Step 625000
Ar -5.323053e-01 0.000000e+00 0.000000e+00
1
Step 626000
Ar -5.431835e-01 0.000000e+00 0.000000e+00
1
Step 627000
Ar -5.860429e-01 0.000000e+00 0.000000e+00
1
Step 628000
Ar -4.342901e-01 0.000000e+00 0.000000e+00
1
Step 629000
Ar -4.936490e-01 0.000000e+00 0.000000e+00
1
Step 630000
Ar -6.809680e-01 0.000000e+00 0.000000e+00
1
Step 631000
Ar -5.592435e-01 0.000000e+00 0.000000e+00
1
Step 632000
Ar -5.205196e-01 0.000000e+00 0.000000e+00
1
Step 633000
Ar -6.201834e-01 0.000000e+00 0.000000e+00
1
Step 634000
Ar -6.088776e-01 0.000000e+00 0.000000e+00
1
Step 635000
Ar -5.126380e-01 0.000000e+00 0.000000e+00
1
Step 636000
Ar -7.650701e-01 0.000000e+00 0.000000e+00
1
Step 637000
Ar -7.832473e-01 0.000000e+00 0.000000e+00
1
Step 638000
Ar -7.765577e-01 0.000000e+00 0.000000e+00
1
Step 639000
Ar -8.697705e-01 0.000000e+00 0.000000e+00
1
Step 640000
Ar -8.647606e-01 0.000000e+00 0.000000e+00
1
Step 641000
Ar -8.303845e-01 0.000000e+00 0.000000e+00
1
Step 642000
Ar -8.445664e-01 0.000000e+00 0.000000e+00
1
Step 643000
Ar -9.135647e-01 0.000000e+00 0.000000e+00
1
Step 644000
Ar -9.066849e-01 0.000000e+00 0.000000e+00
1
Step 645000
Ar -8.467548e-01 0.000000e+00 0.000000e+00
1
Step 646000
Ar -8.024215e-01 0.000000e+00 0.000000e+00
1
Step 647000
Ar -6.741516e-01 0.000000e+00 0.000000e+00
1
Step 648000
Ar -6.923890e-01 0.000000e+00 0.000000e+00
1
Step 649000
Ar -5.798650e-01 0.000000e+00 0.000000e+00
1