1
Step 120000
Ar 1.002060e+00 0.000000e+00 0.000000e+00
1
Step 121000
Ar 1.013750e+00 0.000000e+00 0.000000e+00
1
Step 122000
Ar 9.855114e-01 0.000000e+00 0.000000e+00
1
Step 123000
Ar 9.890039e-01 0.000000e+00 0.000000e+00
1
Step 124000
Ar 9.902843e-01 0.000000e+00 0.000000e+00
1
Step 125000
Ar 1.022547e+00 0.000000e+00 0.000000e+00
1
Step 126000
Ar 1.002447e+00 0.000000e+00 0.000000e+00
1
Step 127000
Ar 9.968551e-01 0.000000e+00 0.000000e+00
1
Step 128000
Ar 1.002535e+00 0.000000e+00 0.000000e+00
1
Step 129000
Ar 9.834042e-01 0.000000e+00 0.000000e+00
1
Step 130000
Ar 9.958293e-01 0.000000e+00 0.000000e+00
1
Step 131000
Ar 1.038605e+00 0.000000e+00 0.000000e+00
1
Step 132000
Ar 1.032573e+00 0.000000e+00 0.000000e+00
1
Step 133000
Ar 1.039723e+00 0.000000e+00 0.000000e+00
1
Step 134000
Ar 1.034127e+00 0.000000e+00 0.000000e+00
1
Step 135000
Ar 1.034384e+00 0.000000e+00 0.000000e+00
1
Step 136000
Ar 9.833811e-01 0.000000e+00 0.000000e+00
1
Step 137000
Ar 9.834921e-01 0.000000e+00 0.000000e+00
1
Step 138000
Ar 9.812613e-01 0.000000e+00 0.000000e+00
1
Step 139000
Ar 9.702463e-01 0.000000e+00 0.000000e+00
1
Step 140000
Ar 9.656903e-01 0.000000e+00 0.000000e+00
1
Step 141000
Ar 9.552027e-01 0.000000e+00 0.000000e+00
1
Step 142000
Ar 9.493299e-01 0.000000e+00 0.000000e+00
1
Step 143000
Ar 9.525558e-01 0.000000e+00 0.000000e+00
1
Step 144000
Ar 9.529007e-01 0.000000e+00 0.000000e+00
1
Step 145000
Ar 9.525156e-01 0.000000e+00 0.000000e+00
1
Step 146000
Ar 1.051254e+00 0.000000e+00 0.000000e+00
1
Step 147000
Ar 1.048975e+00 0.000000e+00 0.000000e+00
1
Step 148000
Ar 1.047674e+00 0.000000e+00 0.000000e+00
1
Step 149000
Ar 1.045369e+00 0.000000e+00 0.000000e+00
1
Step 150000
Ar 1.048459e+00 0.000000e+00 0.000000e+00
1
Step 151000
Ar 9.847599e-01 0.000000e+00 0.000000e+00
1
Step 152000
Ar 9.811745e-01 0.000000e+00 0.000000e+00
1
Step 153000
Ar 9.872480e-01 0.000000e+00 0.000000e+00
1
Step 154000
Ar 9.798830e-01 0.000000e+00 0.000000e+00
1
Step 155000
Ar 9.808237e-01 0.000000e+00 0.000000e+00
1
Step 156000
Ar 1.010709e+00 0.000000e+00 0.000000e+00
1
Step 157000
Ar 1.009994e+00 0.000000e+00 0.000000e+00
1
Step 158000
Ar 1.008076e+00 0.000000e+00 0.000000e+00
1
Step 159000
Ar 1.010066e+00 0.000000e+00 0.000000e+00
1
Step 160000
Ar 1.010468e+00 0.000000e+00 0.000000e+00
1
Step 161000
Ar 8.408912e-01 0.000000e+00 0.000000e+00
1
Step 162000
Ar 1.065699e+00 0.000000e+00 0.000000e+00
1
Step 163000
Ar 1.062781e+00 0.000000e+00 0.000000e+00
1
Step 164000
Ar 1.060144e+00 0.000000e+00 0.000000e+00
1
Step 165000
Ar 1.055778e+00 0.000000e+00 0.000000e+00
1
Step 166000
Ar 1.070181e+00 0.000000e+00 0.000000e+00
1
Step 167000
Ar 1.067053e+00 0.000000e+00 0.000000e+00
1
Step 168000
Ar 1.070191e+00 0.000000e+00 0.000000e+00
1
Step 169000
Ar 1.069869e+00 0.000000e+00 0.000000e+00
1
Step 170000
Ar 1.069796e+00 0.000000e+00 0.000000e+00
1
Step 171000
Ar 1.079619e+00 0.000000e+00 0.000000e+00
1
Step 172000
Ar 1.081877e+00 0.000000e+00 0.000000e+00
1
Step 173000
Ar 1.084846e+00 0.000000e+00 0.000000e+00
1
Step 174000
Ar 1.083623e+00 0.000000e+00 0.000000e+00
1
Step 175000
Ar 1.080458e+00 0.000000e+00 0.000000e+00
1
Step 176000
Ar 9.700895e-01 0.000000e+00 0.000000e+00
1
Step 177000
Ar 9.981377e-01 0.000000e+00 0.000000e+00
1
Step 178000
Ar 9.517074e-01 0.000000e+00 0.000000e+00
1
Step 179000
Ar 9.389069e-01 0.000000e+00 0.000000e+00
1
Step 180000
Ar 9.366796e-01 0.000000e+00 0.000000e+00
1
Step 181000
Ar 9.780165e-01 0.000000e+00 0.000000e+00
1
Step 182000
Ar 9.250199e-01 0.000000e+00 0.000000e+00
1
Step 183000
Ar 9.244121e-01 0.000000e+00 0.000000e+00
1
Step 184000
Ar 9.226536e-01 0.000000e+00 0.000000e+00
1
Step 185000
Ar 9.242605e-01 0.000000e+00 0.000000e+00
1
Step 186000
Ar 9.857297e-01 0.000000e+00 0.000000e+00
1
Step 187000
Ar 1.062440e+00 0.000000e+00 0.000000e+00
1
Step 188000
Ar 9.756332e-01 0.000000e+00 0.000000e+00
1
Step 189000
Ar 9.829383e-01 0.000000e+00 0.000000e+00
1
Step 190000
Ar 9.079558e-01 0.000000e+00 0.000000e+00
1
Step 191000
Ar 9.179950e-01 0.000000e+00 0.000000e+00
1
Step 192000
Ar 1.003981e+00 0.000000e+00 0.000000e+00
1
Step 193000
Ar 1.014267e+00 0.000000e+00 0.000000e+00
1
Step 194000
Ar 9.857657e-01 0.000000e+00 0.000000e+00
1
Step 195000
Ar 1.077103e+00 0.000000e+00 0.000000e+00
1
Step 196000
Ar 9.886743e-01 0.000000e+00 0.000000e+00
1
Step 197000
Ar 1.018215e+00 0.000000e+00 0.000000e+00
1
Step 198000
Ar 9.705710e-01 0.000000e+00 0.000000e+00
1
Step 199000
Ar 8.955889e-01 0.000000e+00 0.000000e+00
1
Step 200000
Ar 8.973318e-01 0.000000e+00 0.000000e+00
1
Step 201000
Ar 9.692212e-01 0.000000e+00 0.000000e+00
1
Step 202000
Ar 7.202803e-01 0.000000e+00 0.000000e+00
1
Step 203000
Ar 1.046798e+00 0.000000e+00 0.000000e+00
1
Step 204000
Ar 1.001739e+00 0.000000e+00 0.000000e+00
1
Step 205000
Ar 1.000690e+00 0.000000e+00 0.000000e+00
1
Step 206000
Ar 1.100000e+00 0.000000e+00 0.000000e+00
1
Step 207000
Ar 1.093909e+00 0.000000e+00 0.000000e+00
1
Step 208000
Ar 1.094322e+00 0.000000e+00 0.000000e+00
1
Step 209000
Ar 1.092425e+00 0.000000e+00 0.000000e+00
1
Step 210000
Ar 1.093105e+00 0.000000e+00 0.000000e+00
1
Step 211000
Ar 9.897772e-01 0.000000e+00 0.000000e+00
1
Step 212000
Ar 8.877708e-01 0.000000e+00 0.000000e+00
1
Step 213000
Ar 8.876777e-01 0.000000e+00 0.000000e+00
1
Step 214000
Ar 8.836762e-01 0.000000e+00 0.000000e+00
1
Step 215000
Ar 8.810625e-01 0.000000e+00 0.000000e+00
1
Step 216000
Ar 1.001825e+00 0.000000e+00 0.000000e+00
1
Step 217000
Ar 1.036614e+00 0.000000e+00 0.000000e+00
1
Step 218000
Ar 1.015796e+00 0.000000e+00 0.000000e+00
1
Step 219000
Ar 1.018093e+00 0.000000e+00 0.000000e+00
1
Step 220000
Ar 1.015558e+00 0.000000e+00 0.000000e+00
1
Step 221000
Ar 9.779719e-01 0.000000e+00 0.000000e+00
1
Step 222000
Ar 1.104905e+00 0.000000e+00 0.000000e+00
1
Step 223000
Ar 1.170230e+00 0.000000e+00 0.000000e+00
1
Step 224000
Ar 9.880778e-01 0.000000e+00 0.000000e+00
1
Step 225000
Ar 9.159289e-01 0.000000e+00 0.000000e+00
1
Step 226000
Ar 9.076417e-01 0.000000e+00 0.000000e+00
1
Step 227000
Ar 9.943277e-01 0.000000e+00 0.000000e+00
1
Step 228000
Ar 7.542427e-01 0.000000e+00 0.000000e+00
1
Step 229000
Ar 9.798114e-01 0.000000e+00 0.000000e+00
1
Step 230000
Ar 9.845434e-01 0.000000e+00 0.000000e+00
1
Step 231000
Ar 1.204807e+00 0.000000e+00 0.000000e+00
1
Step 232000
Ar 8.092918e-01 0.000000e+00 0.000000e+00
1
Step 233000
Ar 1.155394e+00 0.000000e+00 0.000000e+00
1
Step 234000
Ar 1.039061e+00 0.000000e+00 0.000000e+00
1
Step 235000
Ar 1.030707e+00 0.000000e+00 0.000000e+00
1
Step 236000
Ar 9.611772e-01 0.000000e+00 0.000000e+00
1
Step 237000
Ar 6.735330e-01 0.000000e+00 0.000000e+00
1
Step 238000
Ar 1.100979e+00 0.000000e+00 0.000000e+00
1
Step 239000
Ar 1.102097e+00 0.000000e+00 0.000000e+00
1
Step 240000
Ar 9.988665e-01 0.000000e+00 0.000000e+00
1
Step 241000
Ar 1.021338e+00 0.000000e+00 0.000000e+00
1
Step 242000
Ar 8.779202e-01 0.000000e+00 0.000000e+00
1
Step 243000
Ar 1.006878e+00 0.000000e+00 0.000000e+00
1
Step 244000
Ar 8.727442e-01 0.000000e+00 0.000000e+00
1
Step 245000
Ar 1.194064e+00 0.000000e+00 0.000000e+00
1
Step 246000
Ar 9.961392e-01 0.000000e+00 0.000000e+00
1
Step 247000
Ar 9.941364e-01 0.000000e+00 0.000000e+00
1
Step 248000
Ar 9.126419e-01 0.000000e+00 0.000000e+00
1
Step 249000
Ar 9.727579e-01 0.000000e+00 0.000000e+00
1
Step 250000
Ar 9.706604e-01 0.000000e+00 0.000000e+00
1
Step 251000
Ar 1.043504e+00 0.000000e+00 0.000000e+00
1
Step 252000
Ar 9.495991e-01 0.000000e+00 0.000000e+00
1
Step 253000
Ar 1.103213e+00 0.000000e+00 0.000000e+00
1
Step 254000
Ar 1.090404e+00 0.000000e+00 0.000000e+00
1
Step 255000
Ar 1.015216e+00 0.000000e+00 0.000000e+00
1
Step 256000
Ar 8.714214e-01 0.000000e+00 0.000000e+00
1
Step 257000
Ar 9.448972e-01 0.000000e+00 0.000000e+00
1
Step 258000
Ar 9.757831e-01 0.000000e+00 0.000000e+00
1
Step 259000
Ar 9.311079e-01 0.000000e+00 0.000000e+00
1
Step 260000
Ar 8.228405e-01 0.000000e+00 0.000000e+00
1
Step 261000
Ar 1.104539e+00 0.000000e+00 0.000000e+00
1
Step 262000
Ar 1.046850e+00 0.000000e+00 0.000000e+00
1
Step 263000
Ar 9.203015e-01 0.000000e+00 0.000000e+00
1
Step 264000
Ar 8.458227e-01 0.000000e+00 0.000000e+00
1
Step 265000
Ar 8.388633e-01 0.000000e+00 0.000000e+00
1
Step 266000
Ar 9.765386e-01 0.000000e+00 0.000000e+00
1
Step 267000
Ar 1.107286e+00 0.000000e+00 0.000000e+00
1
Step 268000
Ar 1.102701e+00 0.000000e+00 0.000000e+00
1
Step 269000
Ar 9.473274e-01 0.000000e+00 0.000000e+00
1
Step 270000
Ar 9.303977e-01 0.000000e+00 0.000000e+00
1
Step 271000
Ar 8.325983e-01 0.000000e+00 0.000000e+00
1
Step 272000
Ar 1.015000e+00 0.000000e+00 0.000000e+00
1
Step 273000
Ar 1.065717e+00 0.000000e+00 0.000000e+00
1
Step 274000
Ar 8.293915e-01 0.000000e+00 0.000000e+00
1
Step 275000
Ar 8.459357e-01 0.000000e+00 0.000000e+00
1
Step 276000
Ar 9.198480e-01 0.000000e+00 0.000000e+00
1
Step 277000
Ar 1.016159e+00 0.000000e+00 0.000000e+00
1
Step 278000
Ar 1.008385e+00 0.000000e+00 0.000000e+00
1
Step 279000
Ar 1.013395e+00 0.000000e+00 0.000000e+00
1
Step 280000
Ar 1.047777e+00 0.000000e+00 0.000000e+00
1
Step 281000
Ar 8.705259e-01 0.000000e+00 0.000000e+00
1
Step 282000
Ar 8.710211e-01 0.000000e+00 0.000000e+00
1
Step 283000
Ar 1.100791e+00 0.000000e+00 0.000000e+00
1
Step 284000
Ar 8.624114e-01 0.000000e+00 0.000000e+00
1
Step 285000
Ar 8.997353e-01 0.000000e+00 0.000000e+00
1
Step 286000
Ar 1.033263e+00 0.000000e+00 0.000000e+00
1
Step 287000
Ar 7.688205e-01 0.000000e+00 0.000000e+00
1
Step 288000
Ar 1.082290e+00 0.000000e+00 0.000000e+00
1
Step 289000
Ar 1.153875e+00 0.000000e+00 0.000000e+00
1
Step 290000
Ar 1.104629e+00 0.000000e+00 0.000000e+00
1
Step 291000
Ar 8.714562e-01 0.000000e+00 0.000000e+00
1
Step 292000
Ar 9.818740e-01 0.000000e+00 0.000000e+00
1
Step 293000
Ar 9.041030e-01 0.000000e+00 0.000000e+00
1
Step 294000
Ar 8.403258e-01 0.000000e+00 0.000000e+00
1
Step 295000
Ar 9.990964e-01 0.000000e+00 0.000000e+00
1
Step 296000
Ar 1.058850e+00 0.000000e+00 0.000000e+00
1
Step 297000
Ar 1.064467e+00 0.000000e+00 0.000000e+00
1
Step 298000
Ar 1.038663e+00 0.000000e+00 0.000000e+00
1
Step 299000
Ar 8.698188e-01 0.000000e+00 0.000000e+00
1
Step 300000
Ar 9.366821e-01 0.000000e+00 0.000000e+00
1
Step 301000
Ar 1.041282e+00 0.000000e+00 0.000000e+00
1
Step 302000
Ar 1.220717e+00 0.000000e+00 0.000000e+00
1
Step 303000
Ar 1.033546e+00 0.000000e+00 0.000000e+00
1
Step 304000
Ar 1.095899e+00 0.000000e+00 0.000000e+00
1
Step 305000
Ar 1.048598e+00 0.000000e+00 0.000000e+00
1
Step 306000
Ar 9.816808e-01 0.000000e+00 0.000000e+00
1
Step 307000
Ar 1.083663e+00 0.000000e+00 0.000000e+00
1
Step 308000
Ar 1.042293e+00 0.000000e+00 0.000000e+00
1
Step 309000
Ar 9.194892e-01 0.000000e+00 0.000000e+00
1
Step 310000
Ar 9.225440e-01 0.000000e+00 0.000000e+00
1
Step 311000
Ar 1.130539e+00 0.000000e+00 0.000000e+00
1
Step 312000
Ar 1.013120e+00 0.000000e+00 0.000000e+00
1
Step 313000
Ar 1.104166e+00 0.000000e+00 0.000000e+00
1
Step 314000
Ar 9.771354e-01 0.000000e+00 0.000000e+00
1
Step 315000
Ar 8.520083e-01 0.000000e+00 0.000000e+00
1
Step 316000
Ar 9.895959e-01 0.000000e+00 0.000000e+00
1
Step 317000
Ar 1.167834e+00 0.000000e+00 0.000000e+00
1
Step 318000
Ar 5.487641e-01 0.000000e+00 0.000000e+00
1
Step 319000
Ar 9.616712e-01 0.000000e+00 0.000000e+00
1
Step 320000
Ar 9.477777e-01 0.000000e+00 0.000000e+00
1
Step 321000
Ar 9.495124e-01 0.000000e+00 0.000000e+00
1
Step 322000
Ar 1.175248e+00 0.000000e+00 0.000000e+00
1
Step 323000
Ar 9.828726e-01 0.000000e+00 0.000000e+00
1
Step 324000
Ar -9.656276e-01 0.000000e+00 0.000000e+00
1
Step 325000
Ar -1.015793e+00 0.000000e+00 0.000000e+00
1
Step 326000
Ar -1.002185e+00 0.000000e+00 0.000000e+00
1
Step 327000
Ar -9.983649e-01 0.000000e+00 0.000000e+00
1
Step 328000
Ar -1.001530e+00 0.000000e+00 0.000000e+00
1
Step 329000
Ar -1.005415e+00 0.000000e+00 0.000000e+00
1
Step 330000
Ar -9.952923e-01 0.000000e+00 0.000000e+00
1
Step 331000
Ar -1.032099e+00 0.000000e+00 0.000000e+00
1
Step 332000
Ar -1.031490e+00 0.000000e+00 0.000000e+00
1
Step 333000
Ar -1.031852e+00 0.000000e+00 0.000000e+00
1
Step 334000
Ar -1.029126e+00 0.000000e+00 0.000000e+00
1
Step 335000
Ar -1.033992e+00 0.000000e+00 0.000000e+00
1
Step 336000
Ar -9.723251e-01 0.000000e+00 0.000000e+00
1
Step 337000
Ar -9.724292e-01 0.000000e+00 0.000000e+00
1
Step 338000
Ar -9.810420e-01 0.000000e+00 0.000000e+00
1
Step 339000
Ar -9.753714e-01 0.000000e+00 0.000000e+00
1
Step 340000
Ar -9.808852e-01 0.000000e+00 0.000000e+00
1
Step 341000
Ar -1.047135e+00 0.000000e+00 0.000000e+00
1
Step 342000
Ar -1.048022e+00 0.000000e+00 0.000000e+00
1
Step 343000
Ar -1.045450e+00 0.000000e+00 0.000000e+00
1
Step 344000
Ar -1.044601e+00 0.000000e+00 0.000000e+00
1
Step 345000
Ar -1.050171e+00 0.000000e+00 0.000000e+00
1
Step 346000
Ar -1.066131e+00 0.000000e+00 0.000000e+00
1
Step 347000
Ar -1.065173e+00 0.000000e+00 0.000000e+00
1
Step 348000
Ar -1.059032e+00 0.000000e+00 0.000000e+00
1
Step 349000
Ar -1.067950e+00 0.000000e+00 0.000000e+00
1
Step 350000
Ar -1.059652e+00 0.000000e+00 0.000000e+00
1
Step 351000
Ar -1.068768e+00 0.000000e+00 0.000000e+00
1
Step 352000
Ar -1.069865e+00 0.000000e+00 0.000000e+00
1
Step 353000
Ar -1.070837e+00 0.000000e+00 0.000000e+00
1
Step 354000
Ar -1.071694e+00 0.000000e+00 0.000000e+00
1
Step 355000
Ar -1.071891e+00 0.000000e+00 0.000000e+00
1
Step 356000
Ar -9.586699e-01 0.000000e+00 0.000000e+00
1
Step 357000
Ar -9.631568e-01 0.000000e+00 0.000000e+00
1
Step 358000
Ar -9.694849e-01 0.000000e+00 0.000000e+00
1
Step 359000
Ar -9.656123e-01 0.000000e+00 0.000000e+00
1
Step 360000
Ar -9.617967e-01 0.000000e+00 0.000000e+00
1
Step 361000
Ar -9.995382e-01 0.000000e+00 0.000000e+00
1
Step 362000
Ar -1.026429e+00 0.000000e+00 0.000000e+00
1
Step 363000
Ar -1.003373e+00 0.000000e+00 0.000000e+00
1
Step 364000
Ar -9.488606e-01 0.000000e+00 0.000000e+00
1
Step 365000
Ar -9.517730e-01 0.000000e+00 0.000000e+00
1
Step 366000
Ar -9.406233e-01 0.000000e+00 0.000000e+00
1
Step 367000
Ar -9.436799e-01 0.000000e+00 0.000000e+00
1
Step 368000
Ar -9.390981e-01 0.000000e+00 0.000000e+00
1
Step 369000
Ar -9.397468e-01 0.000000e+00 0.000000e+00
1
Step 370000
Ar -9.420840e-01 0.000000e+00 0.000000e+00
1
Step 371000
Ar -9.306775e-01 0.000000e+00 0.000000e+00
1
Step 372000
Ar -9.268561e-01 0.000000e+00 0.000000e+00
1
Step 373000
Ar -9.333726e-01 0.000000e+00 0.000000e+00
1
Step 374000
Ar -9.379131e-01 0.000000e+00 0.000000e+00
1
Step 375000
Ar -9.324655e-01 0.000000e+00 0.000000e+00
1
Step 376000
Ar -9.209639e-01 0.000000e+00 0.000000e+00
1
Step 377000
Ar -9.235106e-01 0.000000e+00 0.000000e+00
1
Step 378000
Ar -9.229034e-01 0.000000e+00 0.000000e+00
1
Step 379000
Ar -9.209132e-01 0.000000e+00 0.000000e+00
1
Step 380000
Ar -9.190028e-01 0.000000e+00 0.000000e+00
1
Step 381000
Ar -9.389199e-01 0.000000e+00 0.000000e+00
1
Step 382000
Ar -1.083921e+00 0.000000e+00 0.000000e+00
1
Step 383000
Ar -1.086144e+00 0.000000e+00 0.000000e+00
1
Step 384000
Ar -9.824645e-01 0.000000e+00 0.000000e+00
1
Step 385000
Ar -1.004362e+00 0.000000e+00 0.000000e+00
1
Step 386000
Ar -8.903329e-01 0.000000e+00 0.000000e+00
1
Step 387000
Ar -9.756926e-01 0.000000e+00 0.000000e+00
1
Step 388000
Ar -9.902141e-01 0.000000e+00 0.000000e+00
1
Step 389000
Ar -1.038718e+00 0.000000e+00 0.000000e+00
1
Step 390000
Ar -9.262158e-01 0.000000e+00 0.000000e+00
1
Step 391000
Ar -9.709187e-01 0.000000e+00 0.000000e+00
1
Step 392000
Ar -9.681042e-01 0.000000e+00 0.000000e+00
1
Step 393000
Ar -9.880541e-01 0.000000e+00 0.000000e+00
1
Step 394000
Ar -1.020107e+00 0.000000e+00 0.000000e+00
1
Step 395000
Ar -1.017062e+00 0.000000e+00 0.000000e+00
1
Step 396000
Ar -9.093883e-01 0.000000e+00 0.000000e+00
1
Step 397000
Ar -9.064149e-01 0.000000e+00 0.000000e+00
1
Step 398000
Ar -9.119946e-01 0.000000e+00 0.000000e+00
1
Step 399000
Ar -9.046782e-01 0.000000e+00 0.000000e+00
1
Step 400000
Ar -9.038492e-01 0.000000e+00 0.000000e+00
1
Step 401000
Ar -1.013007e+00 0.000000e+00 0.000000e+00
1
Step 402000
Ar -9.849617e-01 0.000000e+00 0.000000e+00
1
Step 403000
Ar -9.681820e-01 0.000000e+00 0.000000e+00
1
Step 404000
Ar -1.055342e+00 0.000000e+00 0.000000e+00
1
Step 405000
Ar -9.762522e-01 0.000000e+00 0.000000e+00
1
Step 406000
Ar -9.407230e-01 0.000000e+00 0.000000e+00
1
Step 407000
Ar -8.467559e-01 0.000000e+00 0.000000e+00
1
Step 408000
Ar -9.667107e-01 0.000000e+00 0.000000e+00
1
Step 409000
Ar -1.053412e+00 0.000000e+00 0.000000e+00
1
Step 410000
Ar -1.010801e+00 0.000000e+00 0.000000e+00
1
Step 411000
Ar -8.792556e-01 0.000000e+00 0.000000e+00
1
Step 412000
Ar -8.962122e-01 0.000000e+00 0.000000e+00
1
Step 413000
Ar -8.947718e-01 0.000000e+00 0.000000e+00
1
Step 414000
Ar -8.931180e-01 0.000000e+00 0.000000e+00
1
Step 415000
Ar -8.931820e-01 0.000000e+00 0.000000e+00
1
Step 416000
Ar -9.389250e-01 0.000000e+00 0.000000e+00
1
Step 417000
Ar -1.083746e+00 0.000000e+00 0.000000e+00
1
Step 418000
Ar -1.079929e+00 0.000000e+00 0.000000e+00
1
Step 419000
Ar -1.007917e+00 0.000000e+00 0.000000e+00
1
Step 420000
Ar -8.290640e-01 0.000000e+00 0.000000e+00
1
Step 421000
Ar -8.793810e-01 0.000000e+00 0.000000e+00
1
Step 422000
Ar -8.844247e-01 0.000000e+00 0.000000e+00
1
Step 423000
Ar -8.801456e-01 0.000000e+00 0.000000e+00
1
Step 424000
Ar -1.074992e+00 0.000000e+00 0.000000e+00
1
Step 425000
Ar -8.829385e-01 0.000000e+00 0.000000e+00
1
Step 426000
Ar -1.077487e+00 0.000000e+00 0.000000e+00
1
Step 427000
Ar -1.085201e+00 0.000000e+00 0.000000e+00
1
Step 428000
Ar -1.078599e+00 0.000000e+00 0.000000e+00
1
Step 429000
Ar -1.080831e+00 0.000000e+00 0.000000e+00
1
Step 430000
Ar -8.237493e-01 0.000000e+00 0.000000e+00
1
Step 431000
Ar -9.300850e-01 0.000000e+00 0.000000e+00
1
Step 432000
Ar -1.000801e+00 0.000000e+00 0.000000e+00
1
Step 433000
Ar -1.044052e+00 0.000000e+00 0.000000e+00
1
Step 434000
Ar -7.610973e-01 0.000000e+00 0.000000e+00
1
Step 435000
Ar -1.022043e+00 0.000000e+00 0.000000e+00
1
Step 436000
Ar -1.083200e+00 0.000000e+00 0.000000e+00
1
Step 437000
Ar -1.083104e+00 0.000000e+00 0.000000e+00
1
Step 438000
Ar -1.083906e+00 0.000000e+00 0.000000e+00
1
Step 439000
Ar -9.313848e-01 0.000000e+00 0.000000e+00
1
Step 440000
Ar -1.089850e+00 0.000000e+00 0.000000e+00
1
Step 441000
Ar -9.686091e-01 0.000000e+00 0.000000e+00
1
Step 442000
Ar -1.101117e+00 0.000000e+00 0.000000e+00
1
Step 443000
Ar -8.148320e-01 0.000000e+00 0.000000e+00
1
Step 444000
Ar -9.572968e-01 0.000000e+00 0.000000e+00
1
Step 445000
Ar -7.202178e-01 0.000000e+00 0.000000e+00
1
Step 446000
Ar -8.740784e-01 0.000000e+00 0.000000e+00
1
Step 447000
Ar -8.722491e-01 0.000000e+00 0.000000e+00
1
Step 448000
Ar -8.747778e-01 0.000000e+00 0.000000e+00
1
Step 449000
Ar -8.728296e-01 0.000000e+00 0.000000e+00
1
Step 450000
Ar -8.733410e-01 0.000000e+00 0.000000e+00
1
Step 451000
Ar -9.796516e-01 0.000000e+00 0.000000e+00
1
Step 452000
Ar -8.583169e-01 0.000000e+00 0.000000e+00
1
Step 453000
Ar -8.538887e-01 0.000000e+00 0.000000e+00
1
Step 454000
Ar -9.911993e-01 0.000000e+00 0.000000e+00
1
Step 455000
Ar -9.716348e-01 0.000000e+00 0.000000e+00
1
Step 456000
Ar -9.913229e-01 0.000000e+00 0.000000e+00
1
Step 457000
Ar -1.072389e+00 0.000000e+00 0.000000e+00
1
Step 458000
Ar -9.897751e-01 0.000000e+00 0.000000e+00
1
Step 459000
Ar -9.600963e-01 0.000000e+00 0.000000e+00
1
Step 460000
Ar -9.656232e-01 0.000000e+00 0.000000e+00
1
Step 461000
Ar -9.510103e-01 0.000000e+00 0.000000e+00
1
Step 462000
Ar -9.524760e-01 0.000000e+00 0.000000e+00
1
Step 463000
Ar -9.541075e-01 0.000000e+00 0.000000e+00
1
Step 464000
Ar -9.581777e-01 0.000000e+00 0.000000e+00
1
Step 465000
Ar -9.486014e-01 0.000000e+00 0.000000e+00
1
Step 466000
Ar -6.789508e-01 0.000000e+00 0.000000e+00
1
Step 467000
Ar -8.144318e-01 0.000000e+00 0.000000e+00
1
Step 468000
Ar -8.186418e-01 0.000000e+00 0.000000e+00
1
Step 469000
Ar -8.126031e-01 0.000000e+00 0.000000e+00
1
Step 470000
Ar -8.163667e-01 0.000000e+00 0.000000e+00
1
Step 471000
Ar -8.059939e-01 0.000000e+00 0.000000e+00
1
Step 472000
Ar -8.081808e-01 0.000000e+00 0.000000e+00
1
Step 473000
Ar -8.025098e-01 0.000000e+00 0.000000e+00
1
Step 474000
Ar -8.050892e-01 0.000000e+00 0.000000e+00
1
Step 475000
Ar -1.104731e+00 0.000000e+00 0.000000e+00
1
Step 476000
Ar -1.115489e+00 0.000000e+00 0.000000e+00
1
Step 477000
Ar -9.359755e-01 0.000000e+00 0.000000e+00
1
Step 478000
Ar -9.392431e-01 0.000000e+00 0.000000e+00
1
Step 479000
Ar -8.613440e-01 0.000000e+00 0.000000e+00
1
Step 480000
Ar -9.978006e-01 0.000000e+00 0.000000e+00
1
Step 481000
Ar -1.094819e+00 0.000000e+00 0.000000e+00
1
Step 482000
Ar -1.050212e+00 0.000000e+00 0.000000e+00
1
Step 483000
Ar -8.796807e-01 0.000000e+00 0.000000e+00
1
Step 484000
Ar -9.239283e-01 0.000000e+00 0.000000e+00
1
Step 485000
Ar -1.004949e+00 0.000000e+00 0.000000e+00
1
Step 486000
Ar -1.150013e+00 0.000000e+00 0.000000e+00
1
Step 487000
Ar -8.663010e-01 0.000000e+00 0.000000e+00
1
Step 488000
Ar -8.615973e-01 0.000000e+00 0.000000e+00
1
Step 489000
Ar -8.679138e-01 0.000000e+00 0.000000e+00
1
Step 490000
Ar -8.638770e-01 0.000000e+00 0.000000e+00
1
Step 491000
Ar -8.093116e-01 0.000000e+00 0.000000e+00
1
Step 492000
Ar -8.039135e-01 0.000000e+00 0.000000e+00
1
Step 493000
Ar -8.111294e-01 0.000000e+00 0.000000e+00
1
Step 494000
Ar -8.064195e-01 0.000000e+00 0.000000e+00
1
Step 495000
Ar -8.076153e-01 0.000000e+00 0.000000e+00
1
Step 496000
Ar -1.106010e+00 0.000000e+00 0.000000e+00
1
Step 497000
Ar -1.027667e+00 0.000000e+00 0.000000e+00
1
Step 498000
Ar -1.074259e+00 0.000000e+00 0.000000e+00
1
Step 499000
Ar -1.076649e+00 0.000000e+00 0.000000e+00
1
Step 500000
Ar -8.650472e-01 0.000000e+00 0.000000e+00
1
Step 501000
Ar -1.145821e+00 0.000000e+00 0.000000e+00
1
Step 502000
Ar -1.029973e+00 0.000000e+00 0.000000e+00
1
Step 503000
Ar -1.066431e+00 0.000000e+00 0.000000e+00
1
Step 504000
Ar -1.090636e+00 0.000000e+00 0.000000e+00
1
Step 505000
Ar -9.262626e-01 0.000000e+00 0.000000e+00
1
Step 506000
Ar -1.134062e+00 0.000000e+00 0.000000e+00
1
Step 507000
Ar -1.162522e+00 0.000000e+00 0.000000e+00
1
Step 508000
Ar -9.514352e-01 0.000000e+00 0.000000e+00
1
Step 509000
Ar -1.262704e+00 0.000000e+00 0.000000e+00
1
Step 510000
Ar -1.184879e+00 0.000000e+00 0.000000e+00
1
Step 511000
Ar -1.075882e+00 0.000000e+00 0.000000e+00
1
Step 512000
Ar -8.883684e-01 0.000000e+00 0.000000e+00
1
Step 513000
Ar -1.077510e+00 0.000000e+00 0.000000e+00
1
Step 514000
Ar -9.615781e-01 0.000000e+00 0.000000e+00
1
Step 515000
Ar -9.148803e-01 0.000000e+00 0.000000e+00
1
Step 516000
Ar -7.357206e-01 0.000000e+00 0.000000e+00
1
Step 517000
Ar -1.034314e+00 0.000000e+00 0.000000e+00
1
Step 518000
Ar -9.872847e-01 0.000000e+00 0.000000e+00
1
Step 519000
Ar -9.087343e-01 0.000000e+00 0.000000e+00
1
Step 520000
Ar -9.090884e-01 0.000000e+00 0.000000e+00
1
Step 521000
Ar -8.529012e-01 0.000000e+00 0.000000e+00
1
Step 522000
Ar -8.565517e-01 0.000000e+00 0.000000e+00
1
Step 523000
Ar -8.520633e-01 0.000000e+00 0.000000e+00
1
Step 524000
Ar -1.114141e+00 0.000000e+00 0.000000e+00
1
Step 525000
Ar -9.738033e-01 0.000000e+00 0.000000e+00
1
Step 526000
Ar -1.204089e+00 0.000000e+00 0.000000e+00
1
Step 527000
Ar -7.946366e-01 0.000000e+00 0.000000e+00
1
Step 528000
Ar -8.007171e-01 0.000000e+00 0.000000e+00
1
Step 529000
Ar -9.440817e-01 0.000000e+00 0.000000e+00
1
Step 530000
Ar -9.380783e-01 0.000000e+00 0.000000e+00
1
Step 531000
Ar -8.993417e-01 0.000000e+00 0.000000e+00
1
Step 532000
Ar -9.002765e-01 0.000000e+00 0.000000e+00
1
Step 533000
Ar -8.977879e-01 0.000000e+00 0.000000e+00
1
Step 534000
Ar -8.958467e-01 0.000000e+00 0.000000e+00
1
Step 535000
Ar -9.400033e-01 0.000000e+00 0.000000e+00
1
Step 536000
Ar -9.569783e-01 0.000000e+00 0.000000e+00
1
Step 537000
Ar -8.172370e-01 0.000000e+00 0.000000e+00
1
Step 538000
Ar -4.884523e-01 0.000000e+00 0.000000e+00
1
Step 539000
Ar -8.970311e-01 0.000000e+00 0.000000e+00
1
Step 540000
Ar -8.538961e-01 0.000000e+00 0.000000e+00
1
Step 541000
Ar -8.478895e-01 0.000000e+00 0.000000e+00
1
Step 542000
Ar -8.472088e-01 0.000000e+00 0.000000e+00
1
Step 543000
Ar -8.381388e-01 0.000000e+00 0.000000e+00
1
Step 544000
Ar -8.446991e-01 0.000000e+00 0.000000e+00
1
Step 545000
Ar -8.451974e-01 0.000000e+00 0.000000e+00
1
Step 546000
Ar -8.545374e-01 0.000000e+00 0.000000e+00
1
Step 547000
Ar -8.551438e-01 0.000000e+00 0.000000e+00
1
Step 548000
Ar -9.000423e-01 0.000000e+00 0.000000e+00
1
Step 549000
Ar -8.253278e-01 0.000000e+00 0.000000e+00
1
Step 550000
Ar -1.027902e+00 0.000000e+00 0.000000e+00
1
Step 551000
Ar -8.930512e-01 0.000000e+00 0.000000e+00
1
Step 552000
Ar -9.276699e-01 0.000000e+00 0.000000e+00
1
Step 553000
Ar -1.073910e+00 0.000000e+00 0.000000e+00
1
Step 554000
Ar -1.047517e+00 0.000000e+00 0.000000e+00
1
Step 555000
Ar -8.836869e-01 0.000000e+00 0.000000e+00
1
Step 556000
Ar -1.215361e+00 0.000000e+00 0.000000e+00
1
Step 557000
Ar -1.109808e+00 0.000000e+00 0.000000e+00
1
Step 558000
Ar -1.058924e+00 0.000000e+00 0.000000e+00
1
Step 559000
Ar -1.080497e+00 0.000000e+00 0.000000e+00
1
Step 560000
Ar -9.086896e-01 0.000000e+00 0.000000e+00
1
Step 561000
Ar -1.111380e+00 0.000000e+00 0.000000e+00
1
Step 562000
Ar -9.921581e-01 0.000000e+00 0.000000e+00
1
Step 563000
Ar -1.095655e+00 0.000000e+00 0.000000e+00
1
Step 564000
Ar -1.005119e+00 0.000000e+00 0.000000e+00
1
Step 565000
Ar -1.063866e+00 0.000000e+00 0.000000e+00
1
Step 566000
Ar -1.047490e+00 0.000000e+00 0.000000e+00
1
Step 567000
Ar -9.836595e-01 0.000000e+00 0.000000e+00
1
Step 568000
Ar -8.841408e-01 0.000000e+00 0.000000e+00
1
Step 569000
Ar -1.041224e+00 0.000000e+00 0.000000e+00
1
Step 570000
Ar -9.784184e-01 0.000000e+00 0.000000e+00
1
Step 571000
Ar -9.650601e-01 0.000000e+00 0.000000e+00
1
Step 572000
Ar -9.682864e-01 0.000000e+00 0.000000e+00
1
Step 573000
Ar -1.137247e+00 0.000000e+00 0.000000e+00
1
Step 574000
Ar -8.775693e-01 0.000000e+00 0.000000e+00
1
Step 575000
Ar -8.862614e-01 0.000000e+00 0.000000e+00
1
Step 576000
Ar -8.412480e-01 0.000000e+00 0.000000e+00
1
Step 577000
Ar -9.994000e-01 0.000000e+00 0.000000e+00
1
Step 578000
Ar -1.081823e+00 0.000000e+00 0.000000e+00
1
Step 579000
Ar -3.957069e-01 0.000000e+00 0.000000e+00
1
Step 580000
Ar -1.218074e+00 0.000000e+00 0.000000e+00
1
Step 581000
Ar -1.053192e+00 0.000000e+00 0.000000e+00
1
Step 582000
Ar -8.822426e-01 0.000000e+00 0.000000e+00
1
Step 583000
Ar -7.296063e-01 0.000000e+00 0.000000e+00
1
Step 584000
Ar -8.569747e-01 0.000000e+00 0.000000e+00
1
Step 585000
Ar -1.168692e+00 0.000000e+00 0.000000e+00
1
Step 586000
Ar -7.974107e-01 0.000000e+00 0.000000e+00
1
Step 587000
Ar -7.998377e-01 0.000000e+00 0.000000e+00
1
Step 588000
Ar -4.798584e-01 0.000000e+00 0.000000e+00
1
Step 589000
Ar 9.328275e-01 0.000000e+00 0.000000e+00
1
Step 590000
Ar 8.517977e-01 0.000000e+00 0.000000e+00
1
Step 591000
Ar 8.332133e-01 0.000000e+00 0.000000e+00
1
Step 592000
Ar 9.138300e-01 0.000000e+00 0.000000e+00
1
Step 593000
Ar 9.142809e-01 0.000000e+00 0.000000e+00
1
Step 594000
Ar 9.068794e-01 0.000000e+00 0.000000e+00
1
Step 595000
Ar 9.124029e-01 0.000000e+00 0.000000e+00
1
Step 596000
Ar 1.025787e+00 0.000000e+00 0.000000e+00
1
Step 597000
Ar 1.060166e+00 0.000000e+00 0.000000e+00
1
Step 598000
Ar 8.746369e-01 0.000000e+00 0.000000e+00
1
Step 599000
Ar 9.244493e-01 0.000000e+00 0.000000e+00
1
Step 600000
Ar 1.007343e+00 0.000000e+00 0.000000e+00
1
Step 601000
Ar 1.173540e+00 0.000000e+00 0.000000e+00
1
Step 602000
Ar 7.712429e-01 0.000000e+00 0.000000e+00
1
Step 603000
Ar 8.807365e-01 0.000000e+00 0.000000e+00
1
Step 604000
Ar 7.391437e-01 0.000000e+00 0.000000e+00
1
Step 605000
Ar 8.696963e-01 0.000000e+00 0.000000e+00
1
Step 606000
Ar 9.950098e-01 0.000000e+00 0.000000e+00
1
Step 607000
Ar 9.761788e-01 0.000000e+00 0.000000e+00
1
Step 608000
Ar -7.598027e-01 0.000000e+00 0.000000e+00
1
Step 609000
Ar -7.053638e-01 0.000000e+00 0.000000e+00
1
Step 610000
Ar -9.811917e-01 0.000000e+00 0.000000e+00
1
Step 611000
Ar -1.079178e+00 0.000000e+00 0.000000e+00
1
Step 612000
Ar -1.146208e+00 0.000000e+00 0.000000e+00
1
Step 613000
Ar -1.050182e+00 0.000000e+00 0.000000e+00
1
Step 614000
Ar -1.128764e+00 0.000000e+00 0.000000e+00
1
Step 615000
Ar -1.209390e+00 0.000000e+00 0.000000e+00
1
Step 616000
Ar -4.464284e-01 0.000000e+00 0.000000e+00
1
Step 617000
Ar -1.218399e+00 0.000000e+00 0.000000e+00
1
Step 618000
Ar -8.882932e-01 0.000000e+00 0.000000e+00
1
Step 619000
Ar -8.389664e-01 0.000000e+00 0.000000e+00
1
Step 620000
Ar -8.949661e-01 0.000000e+00 0.000000e+00
1
Step 621000
Ar -9.471091e-01 0.000000e+00 0.000000e+00
1
Step 622000
Ar -8.381728e-01 0.000000e+00 0.000000e+00
1
Step 623000
Ar -1.115167e+00 0.000000e+00 0.000000e+00
1
Step 624000
Ar -9.270477e-01 0.000000e+00 0.000000e+00
1
Step 625000
Ar -1.080037e+00 0.000000e+00 0.000000e+00
1
Step 626000
Ar -8.698783e-01 0.000000e+00 0.000000e+00
1
Step 627000
Ar -9.303085e-01 0.000000e+00 0.000000e+00
1
Step 628000
Ar -1.036928e+00 0.000000e+00 0.000000e+00
1
Step 629000
Ar -9.193608e-01 0.000000e+00 0.000000e+00
1
Step 630000
Ar -7.997109e-01 0.000000e+00 0.000000e+00
1
Step 631000
Ar -1.088767e+00 0.000000e+00 0.000000e+00
1
Step 632000
Ar -1.199701e+00 0.000000e+00 0.000000e+00
1
Step 633000
Ar -7.688583e-01 0.000000e+00 0.000000e+00
1
Step 634000
Ar -9.683302e-01 0.000000e+00 0.000000e+00
1
Step 635000
Ar -1.033770e+00 0.000000e+00 0.000000e+00
1
Step 636000
Ar -7.126445e-01 0.000000e+00 0.000000e+00
1
Step 637000
Ar -1.120703e+00 0.000000e+00 0.000000e+00
1
Step 638000
Ar -7.600077e-01 0.000000e+00 0.000000e+00
1
Step 639000
Ar -7.662120e-01 0.000000e+00 0.000000e+00
1
Step 640000
Ar -1.118714e+00 0.000000e+00 0.000000e+00
1
Step 641000
Ar -8.904682e-01 0.000000e+00 0.000000e+00
1
Step 642000
Ar 8.463543e-01 0.000000e+00 0.000000e+00
1
Step 643000
Ar 1.051644e+00 0.000000e+00 0.000000e+00
1
Step 644000
Ar 1.063403e+00 0.000000e+00 0.000000e+00
1
Step 645000
Ar 1.083129e+00 0.000000e+00 0.000000e+00
1
Step 646000
Ar 1.009982e+00 0.000000e+00 0.000000e+00
1
Step 647000
Ar 1.124369e+00 0.000000e+00 0.000000e+00
1
Step 648000
Ar 9.774390e-01 0.000000e+00 0.000000e+00
1
Step 649000
Ar 1.061687e+00 0.000000e+00 0.000000e+00
1
Step 650000