1
Step 120000
Ar 9.844265e-01 0.000000e+00 0.000000e+00
1
Step 121000
Ar 9.578841e-01 0.000000e+00 0.000000e+00
1
Step 122000
Ar 1.163801e+00 0.000000e+00 0.000000e+00
1
Step 123000
Ar 1.177351e+00 0.000000e+00 0.000000e+00
1
Step 124000
Ar 1.114272e+00 0.000000e+00 0.000000e+00
1
Step 125000
Ar 8.981882e-01 0.000000e+00 0.000000e+00
1
Step 126000
Ar 1.050538e+00 0.000000e+00 0.000000e+00
1
Step 127000
Ar 9.375974e-01 0.000000e+00 0.000000e+00
1
Step 128000
Ar 1.014411e+00 0.000000e+00 0.000000e+00
1
Step 129000
Ar 1.180049e+00 0.000000e+00 0.000000e+00
1
Step 130000
Ar 9.573870e-01 0.000000e+00 0.000000e+00
1
Step 131000
Ar 1.113319e+00 0.000000e+00 0.000000e+00
1
Step 132000
Ar 1.021950e+00 0.000000e+00 0.000000e+00
1
Step 133000
Ar 1.016377e+00 0.000000e+00 0.000000e+00
1
Step 134000
Ar 1.103992e+00 0.000000e+00 0.000000e+00
1
Step 135000
Ar 1.033898e+00 0.000000e+00 0.000000e+00
1
Step 136000
Ar 9.939526e-01 0.000000e+00 0.000000e+00
1
Step 137000
Ar 1.010255e+00 0.000000e+00 0.000000e+00
1
Step 138000
Ar 9.936049e-01 0.000000e+00 0.000000e+00
1
Step 139000
Ar 9.803629e-01 0.000000e+00 0.000000e+00
1
Step 140000
Ar 1.008875e+00 0.000000e+00 0.000000e+00
1
Step 141000
Ar 9.832711e-01 0.000000e+00 0.000000e+00
1
Step 142000
Ar 9.984407e-01 0.000000e+00 0.000000e+00
1
Step 143000
Ar 9.677549e-01 0.000000e+00 0.000000e+00
1
Step 144000
Ar 9.780259e-01 0.000000e+00 0.000000e+00
1
Step 145000
Ar 9.841390e-01 0.000000e+00 0.000000e+00
1
Step 146000
Ar 1.022994e+00 0.000000e+00 0.000000e+00
1
Step 147000
Ar 1.022702e+00 0.000000e+00 0.000000e+00
1
Step 148000
Ar 1.017409e+00 0.000000e+00 0.000000e+00
1
Step 149000
Ar 1.016407e+00 0.000000e+00 0.000000e+00
1
Step 150000
Ar 1.022091e+00 0.000000e+00 0.000000e+00
1
Step 151000
Ar 9.983689e-01 0.000000e+00 0.000000e+00
1
Step 152000
Ar 9.986799e-01 0.000000e+00 0.000000e+00
1
Step 153000
Ar 9.937370e-01 0.000000e+00 0.000000e+00
1
Step 154000
Ar 9.993780e-01 0.000000e+00 0.000000e+00
1
Step 155000
Ar 9.967732e-01 0.000000e+00 0.000000e+00
1
Step 156000
Ar 1.112147e+00 0.000000e+00 0.000000e+00
1
Step 157000
Ar 1.079614e+00 0.000000e+00 0.000000e+00
1
Step 158000
Ar 1.075472e+00 0.000000e+00 0.000000e+00
1
Step 159000
Ar 1.167519e+00 0.000000e+00 0.000000e+00
1
Step 160000
Ar 1.283477e+00 0.000000e+00 0.000000e+00
1
Step 161000
Ar 1.351017e+00 0.000000e+00 0.000000e+00
1
Step 162000
Ar 1.304530e+00 0.000000e+00 0.000000e+00
1
Step 163000
Ar 1.321815e+00 0.000000e+00 0.000000e+00
1
Step 164000
Ar 1.347377e+00 0.000000e+00 0.000000e+00
1
Step 165000
Ar 1.306599e+00 0.000000e+00 0.000000e+00
1
Step 166000
Ar 1.357142e+00 0.000000e+00 0.000000e+00
1
Step 167000
Ar 1.332611e+00 0.000000e+00 0.000000e+00
1
Step 168000
Ar 1.350685e+00 0.000000e+00 0.000000e+00
1
Step 169000
Ar 1.392667e+00 0.000000e+00 0.000000e+00
1
Step 170000
Ar 1.344505e+00 0.000000e+00 0.000000e+00
1
Step 171000
Ar 1.391174e+00 0.000000e+00 0.000000e+00
1
Step 172000
Ar 1.385920e+00 0.000000e+00 0.000000e+00
1
Step 173000
Ar 1.360866e+00 0.000000e+00 0.000000e+00
1
Step 174000
Ar 1.369006e+00 0.000000e+00 0.000000e+00
1
Step 175000
Ar 1.360077e+00 0.000000e+00 0.000000e+00
1
Step 176000
Ar 1.403048e+00 0.000000e+00 0.000000e+00
1
Step 177000
Ar 1.373790e+00 0.000000e+00 0.000000e+00
1
Step 178000
Ar 1.372775e+00 0.000000e+00 0.000000e+00
1
Step 179000
Ar 1.397425e+00 0.000000e+00 0.000000e+00
1
Step 180000
Ar 1.388370e+00 0.000000e+00 0.000000e+00
1
Step 181000
Ar 1.426481e+00 0.000000e+00 0.000000e+00
1
Step 182000
Ar 1.419992e+00 0.000000e+00 0.000000e+00
1
Step 183000
Ar 1.410593e+00 0.000000e+00 0.000000e+00
1
Step 184000
Ar 1.488610e+00 0.000000e+00 0.000000e+00
1
Step 185000
Ar 1.410620e+00 0.000000e+00 0.000000e+00
1
Step 186000
Ar 1.439206e+00 0.000000e+00 0.000000e+00
1
Step 187000
Ar 1.425242e+00 0.000000e+00 0.000000e+00
1
Step 188000
Ar 1.435414e+00 0.000000e+00 0.000000e+00
1
Step 189000
Ar 1.474975e+00 0.000000e+00 0.000000e+00
1
Step 190000
Ar 1.429304e+00 0.000000e+00 0.000000e+00
1
Step 191000
Ar 1.443050e+00 0.000000e+00 0.000000e+00
1
Step 192000
Ar 1.454091e+00 0.000000e+00 0.000000e+00
1
Step 193000
Ar 1.491113e+00 0.000000e+00 0.000000e+00
1
Step 194000
Ar 1.473365e+00 0.000000e+00 0.000000e+00
1
Step 195000
Ar 1.457947e+00 0.000000e+00 0.000000e+00
1
Step 196000
Ar 1.492218e+00 0.000000e+00 0.000000e+00
1
Step 197000
Ar 1.483594e+00 0.000000e+00 0.000000e+00
1
Step 198000
Ar 1.499753e+00 0.000000e+00 0.000000e+00
1
Step 199000
Ar 1.496008e+00 0.000000e+00 0.000000e+00
1
Step 200000
Ar 1.500855e+00 0.000000e+00 0.000000e+00
1
Step 201000
Ar 1.511853e+00 0.000000e+00 0.000000e+00
1
Step 202000
Ar 1.519799e+00 0.000000e+00 0.000000e+00
1
Step 203000
Ar 1.521863e+00 0.000000e+00 0.000000e+00
1
Step 204000
Ar 1.546810e+00 0.000000e+00 0.000000e+00
1
Step 205000
Ar 1.521494e+00 0.000000e+00 0.000000e+00
1
Step 206000
Ar 1.540187e+00 0.000000e+00 0.000000e+00
1
Step 207000
Ar 1.545837e+00 0.000000e+00 0.000000e+00
1
Step 208000
Ar 1.537647e+00 0.000000e+00 0.000000e+00
1
Step 209000
Ar 1.548393e+00 0.000000e+00 0.000000e+00
1
Step 210000
Ar 1.532369e+00 0.000000e+00 0.000000e+00
1
Step 211000
Ar 1.555839e+00 0.000000e+00 0.000000e+00
1
Step 212000
Ar 1.560783e+00 0.000000e+00 0.000000e+00
1
Step 213000
Ar 1.547587e+00 0.000000e+00 0.000000e+00
1
Step 214000
Ar 1.564102e+00 0.000000e+00 0.000000e+00
1
Step 215000
Ar 1.574566e+00 0.000000e+00 0.000000e+00
1
Step 216000
Ar 1.588494e+00 0.000000e+00 0.000000e+00
1
Step 217000
Ar 1.590746e+00 0.000000e+00 0.000000e+00
1
Step 218000
Ar 1.590244e+00 0.000000e+00 0.000000e+00
1
Step 219000
Ar 1.593017e+00 0.000000e+00 0.000000e+00
1
Step 220000
Ar 1.589271e+00 0.000000e+00 0.000000e+00
1
Step 221000
Ar 1.060526e+00 0.000000e+00 0.000000e+00
1
Step 222000
Ar 1.104236e+00 0.000000e+00 0.000000e+00
1
Step 223000
Ar 1.046057e+00 0.000000e+00 0.000000e+00
1
Step 224000
Ar 1.046825e+00 0.000000e+00 0.000000e+00
1
Step 225000
Ar 1.143965e+00 0.000000e+00 0.000000e+00
1
Step 226000
Ar 1.065904e+00 0.000000e+00 0.000000e+00
1
Step 227000
Ar 1.064101e+00 0.000000e+00 0.000000e+00
1
Step 228000
Ar 1.050276e+00 0.000000e+00 0.000000e+00
1
Step 229000
Ar 1.099315e+00 0.000000e+00 0.000000e+00
1
Step 230000
Ar 1.059752e+00 0.000000e+00 0.000000e+00
1
Step 231000
Ar 1.048460e+00 0.000000e+00 0.000000e+00
1
Step 232000
Ar 1.045299e+00 0.000000e+00 0.000000e+00
1
Step 233000
Ar 1.047528e+00 0.000000e+00 0.000000e+00
1
Step 234000
Ar 1.050641e+00 0.000000e+00 0.000000e+00
1
Step 235000
Ar 1.049854e+00 0.000000e+00 0.000000e+00
1
Step 236000
Ar 7.777417e-01 0.000000e+00 0.000000e+00
1
Step 237000
Ar 8.717028e-01 0.000000e+00 0.000000e+00
1
Step 238000
Ar 8.585604e-01 0.000000e+00 0.000000e+00
1
Step 239000
Ar 6.568571e-01 0.000000e+00 0.000000e+00
1
Step 240000
Ar 8.561551e-01 0.000000e+00 0.000000e+00
1
Step 241000
Ar 8.061174e-01 0.000000e+00 0.000000e+00
1
Step 242000
Ar 6.678120e-01 0.000000e+00 0.000000e+00
1
Step 243000
Ar 7.256744e-01 0.000000e+00 0.000000e+00
1
Step 244000
Ar 8.271130e-01 0.000000e+00 0.000000e+00
1
Step 245000
Ar 7.128775e-01 0.000000e+00 0.000000e+00
1
Step 246000
Ar 8.183093e-01 0.000000e+00 0.000000e+00
1
Step 247000
Ar 8.237222e-01 0.000000e+00 0.000000e+00
1
Step 248000
Ar 8.377129e-01 0.000000e+00 0.000000e+00
1
Step 249000
Ar 8.039966e-01 0.000000e+00 0.000000e+00
1
Step 250000
Ar 8.267333e-01 0.000000e+00 0.000000e+00
1
Step 251000
Ar 9.257895e-01 0.000000e+00 0.000000e+00
1
Step 252000
Ar 9.259404e-01 0.000000e+00 0.000000e+00
1
Step 253000
Ar 9.246257e-01 0.000000e+00 0.000000e+00
1
Step 254000
Ar 9.238415e-01 0.000000e+00 0.000000e+00
1
Step 255000
Ar 9.463443e-01 0.000000e+00 0.000000e+00
1
Step 256000
Ar 8.382247e-01 0.000000e+00 0.000000e+00
1
Step 257000
Ar 8.468532e-01 0.000000e+00 0.000000e+00
1
Step 258000
Ar 8.406241e-01 0.000000e+00 0.000000e+00
1
Step 259000
Ar 8.396734e-01 0.000000e+00 0.000000e+00
1
Step 260000
Ar 8.393592e-01 0.000000e+00 0.000000e+00
1
Step 261000
Ar 1.199550e+00 0.000000e+00 0.000000e+00
1
Step 262000
Ar 1.240403e+00 0.000000e+00 0.000000e+00
1
Step 263000
Ar 1.220464e+00 0.000000e+00 0.000000e+00
1
Step 264000
Ar 1.181885e+00 0.000000e+00 0.000000e+00
1
Step 265000
Ar 1.221671e+00 0.000000e+00 0.000000e+00
1
Step 266000
Ar 1.270505e+00 0.000000e+00 0.000000e+00
1
Step 267000
Ar 1.256143e+00 0.000000e+00 0.000000e+00
1
Step 268000
Ar 1.248709e+00 0.000000e+00 0.000000e+00
1
Step 269000
Ar 1.262483e+00 0.000000e+00 0.000000e+00
1
Step 270000
Ar 1.240669e+00 0.000000e+00 0.000000e+00
1
Step 271000
Ar 1.167520e+00 0.000000e+00 0.000000e+00
1
Step 272000
Ar 1.184437e+00 0.000000e+00 0.000000e+00
1
Step 273000
Ar 1.175391e+00 0.000000e+00 0.000000e+00
1
Step 274000
Ar 1.177018e+00 0.000000e+00 0.000000e+00
1
Step 275000
Ar 1.172486e+00 0.000000e+00 0.000000e+00
1
Step 276000
Ar 1.258938e+00 0.000000e+00 0.000000e+00
1
Step 277000
Ar 1.251295e+00 0.000000e+00 0.000000e+00
1
Step 278000
Ar 1.272472e+00 0.000000e+00 0.000000e+00
1
Step 279000
Ar 1.271478e+00 0.000000e+00 0.000000e+00
1
Step 280000
Ar 1.256851e+00 0.000000e+00 0.000000e+00
1
Step 281000
Ar 1.087566e+00 0.000000e+00 0.000000e+00
1
Step 282000
Ar 1.083230e+00 0.000000e+00 0.000000e+00
1
Step 283000
Ar 1.106898e+00 0.000000e+00 0.000000e+00
1
Step 284000
Ar 1.125371e+00 0.000000e+00 0.000000e+00
1
Step 285000
Ar 1.079598e+00 0.000000e+00 0.000000e+00
1
Step 286000
Ar 1.093527e+00 0.000000e+00 0.000000e+00
1
Step 287000
Ar 1.128749e+00 0.000000e+00 0.000000e+00
1
Step 288000
Ar 1.108871e+00 0.000000e+00 0.000000e+00
1
Step 289000
Ar 1.124245e+00 0.000000e+00 0.000000e+00
1
Step 290000
Ar 1.115033e+00 0.000000e+00 0.000000e+00
1
Step 291000
Ar 1.127991e+00 0.000000e+00 0.000000e+00
1
Step 292000
Ar 1.134399e+00 0.000000e+00 0.000000e+00
1
Step 293000
Ar 1.129609e+00 0.000000e+00 0.000000e+00
1
Step 294000
Ar 1.125036e+00 0.000000e+00 0.000000e+00
1
Step 295000
Ar 1.126139e+00 0.000000e+00 0.000000e+00
1
Step 296000
Ar 1.100308e+00 0.000000e+00 0.000000e+00
1
Step 297000
Ar 1.103571e+00 0.000000e+00 0.000000e+00
1
Step 298000
Ar 1.092022e+00 0.000000e+00 0.000000e+00
1
Step 299000
Ar 1.101200e+00 0.000000e+00 0.000000e+00
1
Step 300000
Ar 1.095825e+00 0.000000e+00 0.000000e+00
1
Step 301000
Ar 1.159662e+00 0.000000e+00 0.000000e+00
1
Step 302000
Ar 1.159237e+00 0.000000e+00 0.000000e+00
1
Step 303000
Ar 1.157924e+00 0.000000e+00 0.000000e+00
1
Step 304000
Ar 1.157232e+00 0.000000e+00 0.000000e+00
1
Step 305000
Ar 1.156887e+00 0.000000e+00 0.000000e+00
1
Step 306000
Ar 1.206427e+00 0.000000e+00 0.000000e+00
1
Step 307000
Ar 1.199865e+00 0.000000e+00 0.000000e+00
1
Step 308000
Ar 1.200993e+00 0.000000e+00 0.000000e+00
1
Step 309000
Ar 1.192097e+00 0.000000e+00 0.000000e+00
1
Step 310000
Ar 1.196280e+00 0.000000e+00 0.000000e+00
1
Step 311000
Ar 1.182917e+00 0.000000e+00 0.000000e+00
1
Step 312000
Ar 1.184389e+00 0.000000e+00 0.000000e+00
1
Step 313000
Ar 1.187010e+00 0.000000e+00 0.000000e+00
1
Step 314000
Ar 1.191532e+00 0.000000e+00 0.000000e+00
1
Step 315000
Ar 1.180797e+00 0.000000e+00 0.000000e+00
1
Step 316000
Ar 6.312471e-01 0.000000e+00 0.000000e+00
1
Step 317000
Ar 5.582568e-01 0.000000e+00 0.000000e+00
1
Step 318000
Ar 6.535878e-01 0.000000e+00 0.000000e+00
1
Step 319000
Ar 6.447618e-01 0.000000e+00 0.000000e+00
1
Step 320000
Ar 6.307481e-01 0.000000e+00 0.000000e+00
1
Step 321000
Ar 6.986312e-01 0.000000e+00 0.000000e+00
1
Step 322000
Ar 6.666910e-01 0.000000e+00 0.000000e+00
1
Step 323000
Ar 6.770909e-01 0.000000e+00 0.000000e+00
1
Step 324000
Ar 6.724281e-01 0.000000e+00 0.000000e+00
1
Step 325000
Ar 6.966667e-01 0.000000e+00 0.000000e+00
1
Step 326000
Ar 7.371585e-01 0.000000e+00 0.000000e+00
1
Step 327000
Ar 7.886815e-01 0.000000e+00 0.000000e+00
1
Step 328000
Ar 7.458097e-01 0.000000e+00 0.000000e+00
1
Step 329000
Ar 7.512327e-01 0.000000e+00 0.000000e+00
1
Step 330000
Ar 8.033792e-01 0.000000e+00 0.000000e+00
1
Step 331000
Ar 7.403429e-01 0.000000e+00 0.000000e+00
1
Step 332000
Ar 7.385186e-01 0.000000e+00 0.000000e+00
1
Step 333000
Ar 7.808311e-01 0.000000e+00 0.000000e+00
1
Step 334000
Ar 7.317213e-01 0.000000e+00 0.000000e+00
1
Step 335000
Ar 7.674744e-01 0.000000e+00 0.000000e+00
1
Step 336000
Ar 7.443412e-01 0.000000e+00 0.000000e+00
1
Step 337000
Ar 7.506009e-01 0.000000e+00 0.000000e+00
1
Step 338000
Ar 7.483386e-01 0.000000e+00 0.000000e+00
1
Step 339000
Ar 7.461252e-01 0.000000e+00 0.000000e+00
1
Step 340000
Ar 7.389471e-01 0.000000e+00 0.000000e+00
1
Step 341000
Ar 1.250546e+00 0.000000e+00 0.000000e+00
1
Step 342000
Ar 1.268001e+00 0.000000e+00 0.000000e+00
1
Step 343000
Ar 1.267236e+00 0.000000e+00 0.000000e+00
1
Step 344000
Ar 1.273256e+00 0.000000e+00 0.000000e+00
1
Step 345000
Ar 1.273038e+00 0.000000e+00 0.000000e+00
1
Step 346000
Ar 9.154688e-01 0.000000e+00 0.000000e+00
1
Step 347000
Ar 9.233384e-01 0.000000e+00 0.000000e+00
1
Step 348000
Ar 9.332009e-01 0.000000e+00 0.000000e+00
1
Step 349000
Ar 9.185329e-01 0.000000e+00 0.000000e+00
1
Step 350000
Ar 9.285853e-01 0.000000e+00 0.000000e+00
1
Step 351000
Ar 9.094084e-01 0.000000e+00 0.000000e+00
1
Step 352000
Ar 9.067962e-01 0.000000e+00 0.000000e+00
1
Step 353000
Ar 9.208956e-01 0.000000e+00 0.000000e+00
1
Step 354000
Ar 9.118849e-01 0.000000e+00 0.000000e+00
1
Step 355000
Ar 9.116362e-01 0.000000e+00 0.000000e+00
1
Step 356000
Ar 9.699288e-01 0.000000e+00 0.000000e+00
1
Step 357000
Ar 9.726104e-01 0.000000e+00 0.000000e+00
1
Step 358000
Ar 9.702435e-01 0.000000e+00 0.000000e+00
1
Step 359000
Ar 9.694635e-01 0.000000e+00 0.000000e+00
1
Step 360000
Ar 9.692633e-01 0.000000e+00 0.000000e+00
1
Step 361000
Ar 8.153655e-01 0.000000e+00 0.000000e+00
1
Step 362000
Ar 8.185676e-01 0.000000e+00 0.000000e+00
1
Step 363000
Ar 8.092842e-01 0.000000e+00 0.000000e+00
1
Step 364000
Ar 8.184257e-01 0.000000e+00 0.000000e+00
1
Step 365000
Ar 8.121687e-01 0.000000e+00 0.000000e+00
1
Step 366000
Ar 8.740261e-01 0.000000e+00 0.000000e+00
1
Step 367000
Ar 8.732106e-01 0.000000e+00 0.000000e+00
1
Step 368000
Ar 8.869706e-01 0.000000e+00 0.000000e+00
1
Step 369000
Ar 8.853220e-01 0.000000e+00 0.000000e+00
1
Step 370000
Ar 8.747875e-01 0.000000e+00 0.000000e+00
1
Step 371000
Ar 8.658440e-01 0.000000e+00 0.000000e+00
1
Step 372000
Ar 8.647539e-01 0.000000e+00 0.000000e+00
1
Step 373000
Ar 8.654250e-01 0.000000e+00 0.000000e+00
1
Step 374000
Ar 6.027681e-01 0.000000e+00 0.000000e+00
1
Step 375000
Ar 6.173097e-01 0.000000e+00 0.000000e+00
1
Step 376000
Ar 5.494417e-01 0.000000e+00 0.000000e+00
1
Step 377000
Ar 5.566301e-01 0.000000e+00 0.000000e+00
1
Step 378000
Ar 6.011829e-01 0.000000e+00 0.000000e+00
1
Step 379000
Ar 5.716707e-01 0.000000e+00 0.000000e+00
1
Step 380000
Ar 5.539105e-01 0.000000e+00 0.000000e+00
1
Step 381000
Ar 5.974337e-01 0.000000e+00 0.000000e+00
1
Step 382000
Ar 5.899959e-01 0.000000e+00 0.000000e+00
1
Step 383000
Ar 5.848574e-01 0.000000e+00 0.000000e+00
1
Step 384000
Ar 6.050895e-01 0.000000e+00 0.000000e+00
1
Step 385000
Ar 6.049254e-01 0.000000e+00 0.000000e+00
1
Step 386000
Ar 5.885977e-01 0.000000e+00 0.000000e+00
1
Step 387000
Ar 5.699878e-01 0.000000e+00 0.000000e+00
1
Step 388000
Ar 5.779427e-01 0.000000e+00 0.000000e+00
1
Step 389000
Ar 5.859691e-01 0.000000e+00 0.000000e+00
1
Step 390000
Ar 5.908203e-01 0.000000e+00 0.000000e+00
1
Step 391000
Ar 5.667719e-01 0.000000e+00 0.000000e+00
1
Step 392000
Ar 5.749922e-01 0.000000e+00 0.000000e+00
1
Step 393000
Ar 5.713070e-01 0.000000e+00 0.000000e+00
1
Step 394000
Ar 5.798698e-01 0.000000e+00 0.000000e+00
1
Step 395000
Ar 5.727239e-01 0.000000e+00 0.000000e+00
1
Step 396000
Ar 8.829564e-01 0.000000e+00 0.000000e+00
1
Step 397000
Ar 8.893349e-01 0.000000e+00 0.000000e+00
1
Step 398000
Ar 9.201722e-01 0.000000e+00 0.000000e+00
1
Step 399000
Ar 8.854046e-01 0.000000e+00 0.000000e+00
1
Step 400000
Ar 8.868421e-01 0.000000e+00 0.000000e+00
1
Step 401000
Ar 1.229483e+00 0.000000e+00 0.000000e+00
1
Step 402000
Ar 1.231151e+00 0.000000e+00 0.000000e+00
1
Step 403000
Ar 1.233208e+00 0.000000e+00 0.000000e+00
1
Step 404000
Ar 1.231291e+00 0.000000e+00 0.000000e+00
1
Step 405000
Ar 1.207222e+00 0.000000e+00 0.000000e+00
1
Step 406000
Ar 1.185845e+00 0.000000e+00 0.000000e+00
1
Step 407000
Ar 1.009844e+00 0.000000e+00 0.000000e+00
1
Step 408000
Ar 6.532035e-01 0.000000e+00 0.000000e+00
1
Step 409000
Ar 6.507832e-01 0.000000e+00 0.000000e+00
1
Step 410000
Ar 6.780754e-01 0.000000e+00 0.000000e+00
1
Step 411000
Ar 6.597230e-01 0.000000e+00 0.000000e+00
1
Step 412000
Ar 6.476366e-01 0.000000e+00 0.000000e+00
1
Step 413000
Ar 6.654236e-01 0.000000e+00 0.000000e+00
1
Step 414000
Ar 6.467153e-01 0.000000e+00 0.000000e+00
1
Step 415000
Ar 6.598912e-01 0.000000e+00 0.000000e+00
1
Step 416000
Ar 7.246205e-01 0.000000e+00 0.000000e+00
1
Step 417000
Ar 7.281836e-01 0.000000e+00 0.000000e+00
1
Step 418000
Ar 7.249373e-01 0.000000e+00 0.000000e+00
1
Step 419000
Ar 7.250003e-01 0.000000e+00 0.000000e+00
1
Step 420000
Ar 7.230656e-01 0.000000e+00 0.000000e+00
1
Step 421000
Ar 7.872532e-01 0.000000e+00 0.000000e+00
1
Step 422000
Ar 7.823489e-01 0.000000e+00 0.000000e+00
1
Step 423000
Ar 7.788659e-01 0.000000e+00 0.000000e+00
1
Step 424000
Ar 7.875245e-01 0.000000e+00 0.000000e+00
1
Step 425000
Ar 7.785251e-01 0.000000e+00 0.000000e+00
1
Step 426000
Ar 7.495129e-01 0.000000e+00 0.000000e+00
1
Step 427000
Ar 7.606812e-01 0.000000e+00 0.000000e+00
1
Step 428000
Ar 7.502808e-01 0.000000e+00 0.000000e+00
1
Step 429000
Ar 7.538582e-01 0.000000e+00 0.000000e+00
1
Step 430000
Ar 7.537054e-01 0.000000e+00 0.000000e+00
1
Step 431000
Ar 7.917246e-01 0.000000e+00 0.000000e+00
1
Step 432000
Ar 7.928063e-01 0.000000e+00 0.000000e+00
1
Step 433000
Ar 7.924426e-01 0.000000e+00 0.000000e+00
1
Step 434000
Ar 7.960803e-01 0.000000e+00 0.000000e+00
1
Step 435000
Ar 7.887807e-01 0.000000e+00 0.000000e+00
1
Step 436000
Ar 8.203618e-01 0.000000e+00 0.000000e+00
1
Step 437000
Ar 1.150542e+00 0.000000e+00 0.000000e+00
1
Step 438000
Ar 4.618033e-01 0.000000e+00 0.000000e+00
1
Step 439000
Ar 2.907828e-01 0.000000e+00 0.000000e+00
1
Step 440000
Ar 4.236463e-01 0.000000e+00 0.000000e+00
1
Step 441000
Ar 3.677558e-01 0.000000e+00 0.000000e+00
1
Step 442000
Ar 2.100501e-01 0.000000e+00 0.000000e+00
1
Step 443000
Ar -1.010316e-01 0.000000e+00 0.000000e+00
1
Step 444000
Ar -1.144862e+00 0.000000e+00 0.000000e+00
1
Step 445000
Ar -1.098763e+00 0.000000e+00 0.000000e+00
1
Step 446000
Ar -1.004147e+00 0.000000e+00 0.000000e+00
1
Step 447000
Ar -8.696365e-01 0.000000e+00 0.000000e+00
1
Step 448000
Ar -9.997510e-01 0.000000e+00 0.000000e+00
1
Step 449000
Ar -1.026451e+00 0.000000e+00 0.000000e+00
1
Step 450000
Ar -9.229360e-01 0.000000e+00 0.000000e+00
1
Step 451000
Ar -9.999579e-01 0.000000e+00 0.000000e+00
1
Step 452000
Ar -9.559736e-01 0.000000e+00 0.000000e+00
1
Step 453000
Ar -9.386377e-01 0.000000e+00 0.000000e+00
1
Step 454000
Ar -1.030618e+00 0.000000e+00 0.000000e+00
1
Step 455000
Ar -1.077913e+00 0.000000e+00 0.000000e+00
1
Step 456000
Ar -1.086329e+00 0.000000e+00 0.000000e+00
1
Step 457000
Ar -1.089800e+00 0.000000e+00 0.000000e+00
1
Step 458000
Ar -1.087329e+00 0.000000e+00 0.000000e+00
1
Step 459000
Ar -1.089738e+00 0.000000e+00 0.000000e+00
1
Step 460000
Ar -1.085849e+00 0.000000e+00 0.000000e+00
1
Step 461000
Ar -1.170199e+00 0.000000e+00 0.000000e+00
1
Step 462000
Ar -1.153913e+00 0.000000e+00 0.000000e+00
1
Step 463000
Ar -1.210642e+00 0.000000e+00 0.000000e+00
1
Step 464000
Ar -1.118680e+00 0.000000e+00 0.000000e+00
1
Step 465000
Ar -1.141859e+00 0.000000e+00 0.000000e+00
1
Step 466000
Ar -1.126816e+00 0.000000e+00 0.000000e+00
1
Step 467000
Ar -1.127150e+00 0.000000e+00 0.000000e+00
1
Step 468000
Ar -1.104945e+00 0.000000e+00 0.000000e+00
1
Step 469000
Ar -1.123453e+00 0.000000e+00 0.000000e+00
1
Step 470000
Ar -1.127980e+00 0.000000e+00 0.000000e+00
1
Step 471000
Ar -1.159807e+00 0.000000e+00 0.000000e+00
1
Step 472000
Ar -1.184103e+00 0.000000e+00 0.000000e+00
1
Step 473000
Ar -1.198013e+00 0.000000e+00 0.000000e+00
1
Step 474000
Ar -1.149687e+00 0.000000e+00 0.000000e+00
1
Step 475000
Ar -1.175325e+00 0.000000e+00 0.000000e+00
1
Step 476000
Ar -1.208860e+00 0.000000e+00 0.000000e+00
1
Step 477000
Ar -1.220634e+00 0.000000e+00 0.000000e+00
1
Step 478000
Ar -1.187106e+00 0.000000e+00 0.000000e+00
1
Step 479000
Ar -1.231436e+00 0.000000e+00 0.000000e+00
1
Step 480000
Ar -1.209562e+00 0.000000e+00 0.000000e+00
1
Step 481000
Ar -1.239993e+00 0.000000e+00 0.000000e+00
1
Step 482000
Ar -1.329623e+00 0.000000e+00 0.000000e+00
1
Step 483000
Ar -1.253140e+00 0.000000e+00 0.000000e+00
1
Step 484000
Ar -1.228264e+00 0.000000e+00 0.000000e+00
1
Step 485000
Ar -1.253304e+00 0.000000e+00 0.000000e+00
1
Step 486000
Ar -1.262639e+00 0.000000e+00 0.000000e+00
1
Step 487000
Ar -1.266519e+00 0.000000e+00 0.000000e+00
1
Step 488000
Ar -1.333792e+00 0.000000e+00 0.000000e+00
1
Step 489000
Ar -1.330788e+00 0.000000e+00 0.000000e+00
1
Step 490000
Ar -1.266789e+00 0.000000e+00 0.000000e+00
1
Step 491000
Ar -1.234840e+00 0.000000e+00 0.000000e+00
1
Step 492000
Ar -1.241040e+00 0.000000e+00 0.000000e+00
1
Step 493000
Ar -1.225601e+00 0.000000e+00 0.000000e+00
1
Step 494000
Ar -1.219837e+00 0.000000e+00 0.000000e+00
1
Step 495000
Ar -1.228543e+00 0.000000e+00 0.000000e+00
1
Step 496000
Ar -1.241422e+00 0.000000e+00 0.000000e+00
1
Step 497000
Ar -1.239933e+00 0.000000e+00 0.000000e+00
1
Step 498000
Ar -1.239062e+00 0.000000e+00 0.000000e+00
1
Step 499000
Ar -1.235276e+00 0.000000e+00 0.000000e+00
1
Step 500000
Ar -1.239853e+00 0.000000e+00 0.000000e+00
1
Step 501000
Ar -1.162524e+00 0.000000e+00 0.000000e+00
1
Step 502000
Ar -1.154112e+00 0.000000e+00 0.000000e+00
1
Step 503000
Ar -1.161732e+00 0.000000e+00 0.000000e+00
1
Step 504000
Ar -1.156850e+00 0.000000e+00 0.000000e+00
1
Step 505000
Ar -1.159484e+00 0.000000e+00 0.000000e+00
1
Step 506000
Ar -1.192523e+00 0.000000e+00 0.000000e+00
1
Step 507000
Ar -1.191323e+00 0.000000e+00 0.000000e+00
1
Step 508000
Ar -1.188994e+00 0.000000e+00 0.000000e+00
1
Step 509000
Ar -1.186813e+00 0.000000e+00 0.000000e+00
1
Step 510000
Ar -1.190557e+00 0.000000e+00 0.000000e+00
1
Step 511000
Ar -1.324973e+00 0.000000e+00 0.000000e+00
1
Step 512000
Ar -1.278664e+00 0.000000e+00 0.000000e+00
1
Step 513000
Ar -1.357320e+00 0.000000e+00 0.000000e+00
1
Step 514000
Ar -1.313482e+00 0.000000e+00 0.000000e+00
1
Step 515000
Ar -1.290587e+00 0.000000e+00 0.000000e+00
1
Step 516000
Ar -1.325809e+00 0.000000e+00 0.000000e+00
1
Step 517000
Ar -1.310458e+00 0.000000e+00 0.000000e+00
1
Step 518000
Ar -1.325136e+00 0.000000e+00 0.000000e+00
1
Step 519000
Ar -1.315412e+00 0.000000e+00 0.000000e+00
1
Step 520000
Ar -1.312869e+00 0.000000e+00 0.000000e+00
1
Step 521000
Ar -1.283100e+00 0.000000e+00 0.000000e+00
1
Step 522000
Ar -1.276947e+00 0.000000e+00 0.000000e+00
1
Step 523000
Ar -1.279050e+00 0.000000e+00 0.000000e+00
1
Step 524000
Ar -1.275297e+00 0.000000e+00 0.000000e+00
1
Step 525000
Ar -1.274081e+00 0.000000e+00 0.000000e+00
1
Step 526000
Ar -7.375726e-01 0.000000e+00 0.000000e+00
1
Step 527000
Ar -8.758018e-01 0.000000e+00 0.000000e+00
1
Step 528000
Ar -9.026634e-01 0.000000e+00 0.000000e+00
1
Step 529000
Ar -7.010338e-01 0.000000e+00 0.000000e+00
1
Step 530000
Ar -8.499894e-01 0.000000e+00 0.000000e+00
1
Step 531000
Ar -7.918764e-01 0.000000e+00 0.000000e+00
1
Step 532000
Ar -7.297011e-01 0.000000e+00 0.000000e+00
1
Step 533000
Ar -7.530066e-01 0.000000e+00 0.000000e+00
1
Step 534000
Ar -8.389396e-01 0.000000e+00 0.000000e+00
1
Step 535000
Ar -7.853778e-01 0.000000e+00 0.000000e+00
1
Step 536000
Ar -5.887114e-01 0.000000e+00 0.000000e+00
1
Step 537000
Ar -7.662122e-01 0.000000e+00 0.000000e+00
1
Step 538000
Ar -6.939488e-01 0.000000e+00 0.000000e+00
1
Step 539000
Ar -6.682456e-01 0.000000e+00 0.000000e+00
1
Step 540000
Ar -7.509653e-01 0.000000e+00 0.000000e+00
1
Step 541000
Ar -6.302605e-01 0.000000e+00 0.000000e+00
1
Step 542000
Ar -7.210877e-01 0.000000e+00 0.000000e+00
1
Step 543000
Ar -5.564116e-01 0.000000e+00 0.000000e+00
1
Step 544000
Ar -7.096620e-01 0.000000e+00 0.000000e+00
1
Step 545000
Ar -7.072589e-01 0.000000e+00 0.000000e+00
1
Step 546000
Ar -8.137474e-01 0.000000e+00 0.000000e+00
1
Step 547000
Ar -8.294472e-01 0.000000e+00 0.000000e+00
1
Step 548000
Ar -8.158998e-01 0.000000e+00 0.000000e+00
1
Step 549000
Ar -7.989282e-01 0.000000e+00 0.000000e+00
1
Step 550000
Ar -8.364782e-01 0.000000e+00 0.000000e+00
1
Step 551000
Ar -8.914502e-01 0.000000e+00 0.000000e+00
1
Step 552000
Ar -8.839338e-01 0.000000e+00 0.000000e+00
1
Step 553000
Ar -8.732347e-01 0.000000e+00 0.000000e+00
1
Step 554000
Ar -8.864976e-01 0.000000e+00 0.000000e+00
1
Step 555000
Ar -8.895894e-01 0.000000e+00 0.000000e+00
1
Step 556000
Ar -9.542125e-01 0.000000e+00 0.000000e+00
1
Step 557000
Ar -9.704923e-01 0.000000e+00 0.000000e+00
1
Step 558000
Ar -1.053666e+00 0.000000e+00 0.000000e+00
1
Step 559000
Ar -9.738966e-01 0.000000e+00 0.000000e+00
1
Step 560000
Ar -1.016091e+00 0.000000e+00 0.000000e+00
1
Step 561000
Ar -1.048135e+00 0.000000e+00 0.000000e+00
1
Step 562000
Ar -1.061003e+00 0.000000e+00 0.000000e+00
1
Step 563000
Ar -1.052994e+00 0.000000e+00 0.000000e+00
1
Step 564000
Ar -1.060046e+00 0.000000e+00 0.000000e+00
1
Step 565000
Ar -1.051974e+00 0.000000e+00 0.000000e+00
1
Step 566000
Ar -1.064542e+00 0.000000e+00 0.000000e+00
1
Step 567000
Ar -1.066236e+00 0.000000e+00 0.000000e+00
1
Step 568000
Ar -1.068354e+00 0.000000e+00 0.000000e+00
1
Step 569000
Ar -1.067836e+00 0.000000e+00 0.000000e+00
1
Step 570000
Ar -1.064397e+00 0.000000e+00 0.000000e+00
1
Step 571000
Ar -9.607360e-01 0.000000e+00 0.000000e+00
1
Step 572000
Ar -9.731854e-01 0.000000e+00 0.000000e+00
1
Step 573000
Ar -9.793579e-01 0.000000e+00 0.000000e+00
1
Step 574000
Ar -9.911231e-01 0.000000e+00 0.000000e+00
1
Step 575000
Ar -9.685810e-01 0.000000e+00 0.000000e+00
1
Step 576000
Ar -7.235042e-01 0.000000e+00 0.000000e+00
1
Step 577000
Ar -7.292833e-01 0.000000e+00 0.000000e+00
1
Step 578000
Ar -7.339674e-01 0.000000e+00 0.000000e+00
1
Step 579000
Ar -7.366549e-01 0.000000e+00 0.000000e+00
1
Step 580000
Ar -7.361310e-01 0.000000e+00 0.000000e+00
1
Step 581000
Ar -1.004392e+00 0.000000e+00 0.000000e+00
1
Step 582000
Ar -1.002543e+00 0.000000e+00 0.000000e+00
1
Step 583000
Ar -9.958603e-01 0.000000e+00 0.000000e+00
1
Step 584000
Ar -9.810604e-01 0.000000e+00 0.000000e+00
1
Step 585000
Ar -9.813822e-01 0.000000e+00 0.000000e+00
1
Step 586000
Ar -9.961349e-01 0.000000e+00 0.000000e+00
1
Step 587000
Ar -9.993462e-01 0.000000e+00 0.000000e+00
1
Step 588000
Ar -9.902913e-01 0.000000e+00 0.000000e+00
1
Step 589000
Ar -9.929840e-01 0.000000e+00 0.000000e+00
1
Step 590000
Ar -9.988583e-01 0.000000e+00 0.000000e+00
1
Step 591000
Ar -9.474798e-01 0.000000e+00 0.000000e+00
1
Step 592000
Ar -9.524836e-01 0.000000e+00 0.000000e+00
1
Step 593000
Ar -9.471041e-01 0.000000e+00 0.000000e+00
1
Step 594000
Ar -9.532251e-01 0.000000e+00 0.000000e+00
1
Step 595000
Ar -9.541043e-01 0.000000e+00 0.000000e+00
1
Step 596000
Ar -9.111912e-01 0.000000e+00 0.000000e+00
1
Step 597000
Ar -9.013531e-01 0.000000e+00 0.000000e+00
1
Step 598000
Ar -9.113682e-01 0.000000e+00 0.000000e+00
1
Step 599000
Ar -9.075264e-01 0.000000e+00 0.000000e+00
1
Step 600000
Ar -9.104318e-01 0.000000e+00 0.000000e+00
1
Step 601000
Ar -1.032664e+00 0.000000e+00 0.000000e+00
1
Step 602000
Ar -1.034296e+00 0.000000e+00 0.000000e+00
1
Step 603000
Ar -1.031446e+00 0.000000e+00 0.000000e+00
1
Step 604000
Ar -1.031320e+00 0.000000e+00 0.000000e+00
1
Step 605000
Ar -1.034852e+00 0.000000e+00 0.000000e+00
1
Step 606000
Ar -7.684480e-01 0.000000e+00 0.000000e+00
1
Step 607000
Ar -7.602190e-01 0.000000e+00 0.000000e+00
1
Step 608000
Ar -7.721286e-01 0.000000e+00 0.000000e+00
1
Step 609000
Ar -7.732203e-01 0.000000e+00 0.000000e+00
1
Step 610000
Ar -7.696898e-01 0.000000e+00 0.000000e+00
1
Step 611000
Ar -6.879107e-01 0.000000e+00 0.000000e+00
1
Step 612000
Ar -5.202754e-01 0.000000e+00 0.000000e+00
1
Step 613000
Ar -6.545738e-01 0.000000e+00 0.000000e+00
1
Step 614000
Ar -5.394387e-01 0.000000e+00 0.000000e+00
1
Step 615000
Ar -6.920319e-01 0.000000e+00 0.000000e+00
1
Step 616000
Ar -6.509832e-01 0.000000e+00 0.000000e+00
1
Step 617000
Ar -5.994930e-01 0.000000e+00 0.000000e+00
1
Step 618000
Ar -4.567704e-01 0.000000e+00 0.000000e+00
1
Step 619000
Ar -5.306870e-01 0.000000e+00 0.000000e+00
1
Step 620000
Ar -5.880263e-01 0.000000e+00 0.000000e+00
1
Step 621000
Ar -5.771829e-01 0.000000e+00 0.000000e+00
1
Step 622000
Ar -5.583279e-01 0.000000e+00 0.000000e+00
1
Step 623000
Ar -4.637863e-01 0.000000e+00 0.000000e+00
1
Step 624000
Ar -5.546890e-01 0.000000e+00 0.000000e+00
1
Step 625000
Ar -5.445127e-01 0.000000e+00 0.000000e+00
1
Step 626000
Ar -4.283565e-01 0.000000e+00 0.000000e+00
1
Step 627000
Ar -4.942722e-01 0.000000e+00 0.000000e+00
1
Step 628000
Ar -5.229831e-01 0.000000e+00 0.000000e+00
1
Step 629000
Ar 3.989018e-01 0.000000e+00 0.000000e+00
1
Step 630000
Ar 3.851342e-01 0.000000e+00 0.000000e+00
1
Step 631000
Ar 4.463875e-01 0.000000e+00 0.000000e+00
1
Step 632000
Ar 5.287271e-01 0.000000e+00 0.000000e+00
1
Step 633000
Ar 4.829322e-01 0.000000e+00 0.000000e+00
1
Step 634000
Ar 4.931774e-01 0.000000e+00 0.000000e+00
1
Step 635000
Ar 5.266259e-01 0.000000e+00 0.000000e+00
1
Step 636000
Ar 4.972464e-01 0.000000e+00 0.000000e+00
1
Step 637000
Ar 4.981295e-01 0.000000e+00 0.000000e+00
1
Step 638000
Ar 4.916112e-01 0.000000e+00 0.000000e+00
1
Step 639000
Ar 4.916717e-01 0.000000e+00 0.000000e+00
1
Step 640000
Ar 4.767600e-01 0.000000e+00 0.000000e+00
1
Step 641000
Ar 4.867018e-01 0.000000e+00 0.000000e+00
1
Step 642000
Ar 5.027852e-01 0.000000e+00 0.000000e+00
1
Step 643000
Ar 4.878513e-01 0.000000e+00 0.000000e+00
1
Step 644000
Ar 4.948218e-01 0.000000e+00 0.000000e+00
1
Step 645000
Ar 5.144436e-01 0.000000e+00 0.000000e+00
1
Step 646000
Ar 6.465673e-01 0.000000e+00 0.000000e+00
1
Step 647000
Ar 6.441140e-01 0.000000e+00 0.000000e+00
1
Step 648000
Ar 6.454393e-01 0.000000e+00 0.000000e+00
1
Step 649000
Ar 6.456246e-01 0.000000e+00 0.000000e+00
1
Step 650000
Ar 6.433457e-01 0.000000e+00 0.000000e+00
1
Step 651000
Ar 1.039872e+00 0.000000e+00 0.000000e+00
1
Step 652000