1
Step 120000
Ar 9.555032e-01 0.000000e+00 0.000000e+00
1
Step 121000
Ar 9.594109e-01 0.000000e+00 0.000000e+00
1
Step 122000
Ar 9.355454e-01 0.000000e+00 0.000000e+00
1
Step 123000
Ar 9.707939e-01 0.000000e+00 0.000000e+00
1
Step 124000
Ar 8.727511e-01 0.000000e+00 0.000000e+00
1
Step 125000
Ar 9.412562e-01 0.000000e+00 0.000000e+00
1
Step 126000
Ar 1.063349e+00 0.000000e+00 0.000000e+00
1
Step 127000
Ar 1.183545e+00 0.000000e+00 0.000000e+00
1
Step 128000
Ar 1.004356e+00 0.000000e+00 0.000000e+00
1
Step 129000
Ar 9.891351e-01 0.000000e+00 0.000000e+00
1
Step 130000
Ar 9.763387e-01 0.000000e+00 0.000000e+00
1
Step 131000
Ar 9.898648e-01 0.000000e+00 0.000000e+00
1
Step 132000
Ar 1.092785e+00 0.000000e+00 0.000000e+00
1
Step 133000
Ar 1.097442e+00 0.000000e+00 0.000000e+00
1
Step 134000
Ar 1.115212e+00 0.000000e+00 0.000000e+00
1
Step 135000
Ar 1.093531e+00 0.000000e+00 0.000000e+00
1
Step 136000
Ar 1.097154e+00 0.000000e+00 0.000000e+00
1
Step 137000
Ar 1.036971e+00 0.000000e+00 0.000000e+00
1
Step 138000
Ar 1.076250e+00 0.000000e+00 0.000000e+00
1
Step 139000
Ar 1.061060e+00 0.000000e+00 0.000000e+00
1
Step 140000
Ar 1.030214e+00 0.000000e+00 0.000000e+00
1
Step 141000
Ar 1.046867e+00 0.000000e+00 0.000000e+00
1
Step 142000
Ar 1.055051e+00 0.000000e+00 0.000000e+00
1
Step 143000
Ar 1.100197e+00 0.000000e+00 0.000000e+00
1
Step 144000
Ar 1.150155e+00 0.000000e+00 0.000000e+00
1
Step 145000
Ar 1.161387e+00 0.000000e+00 0.000000e+00
1
Step 146000
Ar 1.163760e+00 0.000000e+00 0.000000e+00
1
Step 147000
Ar 1.117740e+00 0.000000e+00 0.000000e+00
1
Step 148000
Ar 1.127606e+00 0.000000e+00 0.000000e+00
1
Step 149000
Ar 1.149668e+00 0.000000e+00 0.000000e+00
1
Step 150000
Ar 1.137849e+00 0.000000e+00 0.000000e+00
1
Step 151000
Ar 1.168598e+00 0.000000e+00 0.000000e+00
1
Step 152000
Ar 1.212761e+00 0.000000e+00 0.000000e+00
1
Step 153000
Ar 1.152234e+00 0.000000e+00 0.000000e+00
1
Step 154000
Ar 1.155700e+00 0.000000e+00 0.000000e+00
1
Step 155000
Ar 1.171748e+00 0.000000e+00 0.000000e+00
1
Step 156000
Ar 1.163538e+00 0.000000e+00 0.000000e+00
1
Step 157000
Ar 1.220666e+00 0.000000e+00 0.000000e+00
1
Step 158000
Ar 1.196403e+00 0.000000e+00 0.000000e+00
1
Step 159000
Ar 1.247522e+00 0.000000e+00 0.000000e+00
1
Step 160000
Ar 1.229954e+00 0.000000e+00 0.000000e+00
1
Step 161000
Ar 1.195684e+00 0.000000e+00 0.000000e+00
1
Step 162000
Ar 1.210697e+00 0.000000e+00 0.000000e+00
1
Step 163000
Ar 1.219414e+00 0.000000e+00 0.000000e+00
1
Step 164000
Ar 1.210394e+00 0.000000e+00 0.000000e+00
1
Step 165000
Ar 1.203630e+00 0.000000e+00 0.000000e+00
1
Step 166000
Ar 1.154291e+00 0.000000e+00 0.000000e+00
1
Step 167000
Ar 1.162136e+00 0.000000e+00 0.000000e+00
1
Step 168000
Ar 1.167750e+00 0.000000e+00 0.000000e+00
1
Step 169000
Ar 1.172717e+00 0.000000e+00 0.000000e+00
1
Step 170000
Ar 1.168604e+00 0.000000e+00 0.000000e+00
1
Step 171000
Ar 1.227020e+00 0.000000e+00 0.000000e+00
1
Step 172000
Ar 1.294893e+00 0.000000e+00 0.000000e+00
1
Step 173000
Ar 1.153373e+00 0.000000e+00 0.000000e+00
1
Step 174000
Ar 1.176859e+00 0.000000e+00 0.000000e+00
1
Step 175000
Ar 1.163097e+00 0.000000e+00 0.000000e+00
1
Step 176000
Ar 1.154581e+00 0.000000e+00 0.000000e+00
1
Step 177000
Ar 1.107727e+00 0.000000e+00 0.000000e+00
1
Step 178000
Ar 1.112904e+00 0.000000e+00 0.000000e+00
1
Step 179000
Ar 1.112988e+00 0.000000e+00 0.000000e+00
1
Step 180000
Ar 1.116249e+00 0.000000e+00 0.000000e+00
1
Step 181000
Ar 1.066928e+00 0.000000e+00 0.000000e+00
1
Step 182000
Ar 1.067054e+00 0.000000e+00 0.000000e+00
1
Step 183000
Ar 1.053157e+00 0.000000e+00 0.000000e+00
1
Step 184000
Ar 1.090371e+00 0.000000e+00 0.000000e+00
1
Step 185000
Ar 9.632294e-01 0.000000e+00 0.000000e+00
1
Step 186000
Ar 9.688966e-01 0.000000e+00 0.000000e+00
1
Step 187000
Ar 9.588951e-01 0.000000e+00 0.000000e+00
1
Step 188000
Ar 9.656623e-01 0.000000e+00 0.000000e+00
1
Step 189000
Ar 9.628344e-01 0.000000e+00 0.000000e+00
1
Step 190000
Ar 9.621036e-01 0.000000e+00 0.000000e+00
1
Step 191000
Ar 9.659303e-01 0.000000e+00 0.000000e+00
1
Step 192000
Ar 9.625436e-01 0.000000e+00 0.000000e+00
1
Step 193000
Ar 9.691050e-01 0.000000e+00 0.000000e+00
1
Step 194000
Ar 9.710895e-01 0.000000e+00 0.000000e+00
1
Step 195000
Ar 9.658784e-01 0.000000e+00 0.000000e+00
1
Step 196000
Ar 9.738938e-01 0.000000e+00 0.000000e+00
1
Step 197000
Ar 9.686992e-01 0.000000e+00 0.000000e+00
1
Step 198000
Ar 9.704693e-01 0.000000e+00 0.000000e+00
1
Step 199000
Ar 9.724758e-01 0.000000e+00 0.000000e+00
1
Step 200000
Ar 8.911024e-01 0.000000e+00 0.000000e+00
1
Step 201000
Ar 8.457270e-01 0.000000e+00 0.000000e+00
1
Step 202000
Ar 7.393025e-01 0.000000e+00 0.000000e+00
1
Step 203000
Ar 6.658959e-01 0.000000e+00 0.000000e+00
1
Step 204000
Ar 8.067124e-01 0.000000e+00 0.000000e+00
1
Step 205000
Ar 9.256051e-01 0.000000e+00 0.000000e+00
1
Step 206000
Ar 9.120739e-01 0.000000e+00 0.000000e+00
1
Step 207000
Ar 7.934755e-01 0.000000e+00 0.000000e+00
1
Step 208000
Ar 7.864964e-01 0.000000e+00 0.000000e+00
1
Step 209000
Ar 9.220420e-01 0.000000e+00 0.000000e+00
1
Step 210000
Ar 8.738042e-01 0.000000e+00 0.000000e+00
1
Step 211000
Ar 8.641398e-01 0.000000e+00 0.000000e+00
1
Step 212000
Ar 8.866410e-01 0.000000e+00 0.000000e+00
1
Step 213000
Ar 9.330084e-01 0.000000e+00 0.000000e+00
1
Step 214000
Ar 9.321438e-01 0.000000e+00 0.000000e+00
1
Step 215000
Ar 8.630731e-01 0.000000e+00 0.000000e+00
1
Step 216000
Ar 8.835982e-01 0.000000e+00 0.000000e+00
1
Step 217000
Ar 8.948511e-01 0.000000e+00 0.000000e+00
1
Step 218000
Ar 8.430164e-01 0.000000e+00 0.000000e+00
1
Step 219000
Ar 8.823550e-01 0.000000e+00 0.000000e+00
1
Step 220000
Ar 8.972335e-01 0.000000e+00 0.000000e+00
1
Step 221000
Ar 9.009832e-01 0.000000e+00 0.000000e+00
1
Step 222000
Ar 8.988489e-01 0.000000e+00 0.000000e+00
1
Step 223000
Ar 8.995254e-01 0.000000e+00 0.000000e+00
1
Step 224000
Ar 8.986334e-01 0.000000e+00 0.000000e+00
1
Step 225000
Ar 1.245725e+00 0.000000e+00 0.000000e+00
1
Step 226000
Ar -1.213549e+00 0.000000e+00 0.000000e+00
1
Step 227000
Ar -1.055333e+00 0.000000e+00 0.000000e+00
1
Step 228000
Ar -1.052937e+00 0.000000e+00 0.000000e+00
1
Step 229000
Ar -1.062975e+00 0.000000e+00 0.000000e+00
1
Step 230000
Ar -1.040962e+00 0.000000e+00 0.000000e+00
1
Step 231000
Ar -1.043456e+00 0.000000e+00 0.000000e+00
1
Step 232000
Ar -1.044185e+00 0.000000e+00 0.000000e+00
1
Step 233000
Ar -1.044993e+00 0.000000e+00 0.000000e+00
1
Step 234000
Ar -1.044157e+00 0.000000e+00 0.000000e+00
1
Step 235000
Ar -1.044509e+00 0.000000e+00 0.000000e+00
1
Step 236000
Ar -1.041072e+00 0.000000e+00 0.000000e+00
1
Step 237000
Ar -1.044108e+00 0.000000e+00 0.000000e+00
1
Step 238000
Ar -1.039351e+00 0.000000e+00 0.000000e+00
1
Step 239000
Ar -1.053195e+00 0.000000e+00 0.000000e+00
1
Step 240000
Ar -1.042314e+00 0.000000e+00 0.000000e+00
1
Step 241000
Ar -1.041007e+00 0.000000e+00 0.000000e+00
1
Step 242000
Ar -1.043026e+00 0.000000e+00 0.000000e+00
1
Step 243000
Ar -1.042960e+00 0.000000e+00 0.000000e+00
1
Step 244000
Ar -1.040694e+00 0.000000e+00 0.000000e+00
1
Step 245000
Ar -1.042028e+00 0.000000e+00 0.000000e+00
1
Step 246000
Ar -1.046753e+00 0.000000e+00 0.000000e+00
1
Step 247000
Ar -9.118285e-01 0.000000e+00 0.000000e+00
1
Step 248000
Ar -8.759324e-01 0.000000e+00 0.000000e+00
1
Step 249000
Ar -7.105832e-01 0.000000e+00 0.000000e+00
1
Step 250000
Ar -8.626875e-01 0.000000e+00 0.000000e+00
1
Step 251000
Ar -9.266649e-01 0.000000e+00 0.000000e+00
1
Step 252000
Ar -8.623223e-01 0.000000e+00 0.000000e+00
1
Step 253000
Ar -9.199334e-01 0.000000e+00 0.000000e+00
1
Step 254000
Ar -1.219923e+00 0.000000e+00 0.000000e+00
1
Step 255000
Ar -1.141618e+00 0.000000e+00 0.000000e+00
1
Step 256000
Ar -1.135410e+00 0.000000e+00 0.000000e+00
1
Step 257000
Ar -1.122117e+00 0.000000e+00 0.000000e+00
1
Step 258000
Ar -1.199869e+00 0.000000e+00 0.000000e+00
1
Step 259000
Ar -1.149771e+00 0.000000e+00 0.000000e+00
1
Step 260000
Ar -1.106814e+00 0.000000e+00 0.000000e+00
1
Step 261000
Ar -1.129869e+00 0.000000e+00 0.000000e+00
1
Step 262000
Ar -1.260370e+00 0.000000e+00 0.000000e+00
1
Step 263000
Ar -1.079833e+00 0.000000e+00 0.000000e+00
1
Step 264000
Ar -1.085506e+00 0.000000e+00 0.000000e+00
1
Step 265000
Ar -1.072162e+00 0.000000e+00 0.000000e+00
1
Step 266000
Ar -1.145644e+00 0.000000e+00 0.000000e+00
1
Step 267000
Ar -1.084675e+00 0.000000e+00 0.000000e+00
1
Step 268000
Ar -1.197737e+00 0.000000e+00 0.000000e+00
1
Step 269000
Ar -1.126426e+00 0.000000e+00 0.000000e+00
1
Step 270000
Ar -1.151993e+00 0.000000e+00 0.000000e+00
1
Step 271000
Ar -1.166695e+00 0.000000e+00 0.000000e+00
1
Step 272000
Ar -1.262712e+00 0.000000e+00 0.000000e+00
1
Step 273000
Ar -1.219251e+00 0.000000e+00 0.000000e+00
1
Step 274000
Ar -1.234472e+00 0.000000e+00 0.000000e+00
1
Step 275000
Ar -1.193644e+00 0.000000e+00 0.000000e+00
1
Step 276000
Ar -1.381118e+00 0.000000e+00 0.000000e+00
1
Step 277000
Ar -1.289746e+00 0.000000e+00 0.000000e+00
1
Step 278000
Ar -1.262680e+00 0.000000e+00 0.000000e+00
1
Step 279000
Ar -1.258985e+00 0.000000e+00 0.000000e+00
1
Step 280000
Ar -1.261818e+00 0.000000e+00 0.000000e+00
1
Step 281000
Ar -1.270943e+00 0.000000e+00 0.000000e+00
1
Step 282000
Ar -1.286186e+00 0.000000e+00 0.000000e+00
1
Step 283000
Ar -1.375625e+00 0.000000e+00 0.000000e+00
1
Step 284000
Ar -1.455034e+00 0.000000e+00 0.000000e+00
1
Step 285000
Ar -1.418471e+00 0.000000e+00 0.000000e+00
1
Step 286000
Ar -1.412618e+00 0.000000e+00 0.000000e+00
1
Step 287000
Ar -1.455649e+00 0.000000e+00 0.000000e+00
1
Step 288000
Ar -1.411599e+00 0.000000e+00 0.000000e+00
1
Step 289000
Ar -1.422524e+00 0.000000e+00 0.000000e+00
1
Step 290000
Ar -1.436788e+00 0.000000e+00 0.000000e+00
1
Step 291000
Ar -1.455263e+00 0.000000e+00 0.000000e+00
1
Step 292000
Ar -1.447541e+00 0.000000e+00 0.000000e+00
1
Step 293000
Ar -5.584980e-01 0.000000e+00 0.000000e+00
1
Step 294000
Ar -8.533482e-01 0.000000e+00 0.000000e+00
1
Step 295000
Ar -7.644311e-01 0.000000e+00 0.000000e+00
1
Step 296000
Ar -1.173321e+00 0.000000e+00 0.000000e+00
1
Step 297000
Ar -1.170113e+00 0.000000e+00 0.000000e+00
1
Step 298000
Ar -1.173417e+00 0.000000e+00 0.000000e+00
1
Step 299000
Ar -1.174703e+00 0.000000e+00 0.000000e+00
1
Step 300000
Ar -1.173880e+00 0.000000e+00 0.000000e+00
1
Step 301000
Ar -1.175322e+00 0.000000e+00 0.000000e+00
1
Step 302000
Ar -1.133941e+00 0.000000e+00 0.000000e+00
1
Step 303000
Ar -1.090651e+00 0.000000e+00 0.000000e+00
1
Step 304000
Ar -1.081746e+00 0.000000e+00 0.000000e+00
1
Step 305000
Ar -1.122642e+00 0.000000e+00 0.000000e+00
1
Step 306000
Ar -1.095775e+00 0.000000e+00 0.000000e+00
1
Step 307000
Ar -1.126252e+00 0.000000e+00 0.000000e+00
1
Step 308000
Ar -1.086096e+00 0.000000e+00 0.000000e+00
1
Step 309000
Ar -1.149138e+00 0.000000e+00 0.000000e+00
1
Step 310000
Ar -1.006728e+00 0.000000e+00 0.000000e+00
1
Step 311000
Ar -1.006522e+00 0.000000e+00 0.000000e+00
1
Step 312000
Ar -9.747260e-01 0.000000e+00 0.000000e+00
1
Step 313000
Ar -9.833109e-01 0.000000e+00 0.000000e+00
1
Step 314000
Ar -9.669329e-01 0.000000e+00 0.000000e+00
1
Step 315000
Ar -9.765777e-01 0.000000e+00 0.000000e+00
1
Step 316000
Ar -1.016451e+00 0.000000e+00 0.000000e+00
1
Step 317000
Ar -1.009960e+00 0.000000e+00 0.000000e+00
1
Step 318000
Ar -1.004933e+00 0.000000e+00 0.000000e+00
1
Step 319000
Ar -1.103277e+00 0.000000e+00 0.000000e+00
1
Step 320000
Ar -1.115241e+00 0.000000e+00 0.000000e+00
1
Step 321000
Ar -1.101355e+00 0.000000e+00 0.000000e+00
1
Step 322000
Ar -1.102233e+00 0.000000e+00 0.000000e+00
1
Step 323000
Ar -1.127744e+00 0.000000e+00 0.000000e+00
1
Step 324000
Ar -1.106239e+00 0.000000e+00 0.000000e+00
1
Step 325000
Ar -1.108729e+00 0.000000e+00 0.000000e+00
1
Step 326000
Ar -1.123357e+00 0.000000e+00 0.000000e+00
1
Step 327000
Ar -1.120138e+00 0.000000e+00 0.000000e+00
1
Step 328000
Ar -1.104330e+00 0.000000e+00 0.000000e+00
1
Step 329000
Ar -1.099812e+00 0.000000e+00 0.000000e+00
1
Step 330000
Ar -1.116238e+00 0.000000e+00 0.000000e+00
1
Step 331000
Ar -1.120363e+00 0.000000e+00 0.000000e+00
1
Step 332000
Ar -1.118485e+00 0.000000e+00 0.000000e+00
1
Step 333000
Ar -1.112330e+00 0.000000e+00 0.000000e+00
1
Step 334000
Ar -1.098215e+00 0.000000e+00 0.000000e+00
1
Step 335000
Ar -1.109162e+00 0.000000e+00 0.000000e+00
1
Step 336000
Ar -1.097157e+00 0.000000e+00 0.000000e+00
1
Step 337000
Ar -1.099823e+00 0.000000e+00 0.000000e+00
1
Step 338000
Ar -1.100075e+00 0.000000e+00 0.000000e+00
1
Step 339000
Ar -1.104214e+00 0.000000e+00 0.000000e+00
1
Step 340000
Ar -1.107226e+00 0.000000e+00 0.000000e+00
1
Step 341000
Ar -1.100638e+00 0.000000e+00 0.000000e+00
1
Step 342000
Ar -1.101942e+00 0.000000e+00 0.000000e+00
1
Step 343000
Ar -1.102288e+00 0.000000e+00 0.000000e+00
1
Step 344000
Ar -1.107890e+00 0.000000e+00 0.000000e+00
1
Step 345000
Ar -1.092755e+00 0.000000e+00 0.000000e+00
1
Step 346000
Ar -1.100525e+00 0.000000e+00 0.000000e+00
1
Step 347000
Ar -1.107206e+00 0.000000e+00 0.000000e+00
1
Step 348000
Ar -1.113775e+00 0.000000e+00 0.000000e+00
1
Step 349000
Ar -1.133238e+00 0.000000e+00 0.000000e+00
1
Step 350000
Ar -1.136441e+00 0.000000e+00 0.000000e+00
1
Step 351000
Ar -1.131406e+00 0.000000e+00 0.000000e+00
1
Step 352000
Ar -1.134567e+00 0.000000e+00 0.000000e+00
1
Step 353000
Ar -1.132395e+00 0.000000e+00 0.000000e+00
1
Step 354000
Ar -1.132213e+00 0.000000e+00 0.000000e+00
1
Step 355000
Ar -1.131354e+00 0.000000e+00 0.000000e+00
1
Step 356000
Ar -1.134310e+00 0.000000e+00 0.000000e+00
1
Step 357000
Ar -9.632019e-01 0.000000e+00 0.000000e+00
1
Step 358000
Ar -9.610609e-01 0.000000e+00 0.000000e+00
1
Step 359000
Ar -9.594734e-01 0.000000e+00 0.000000e+00
1
Step 360000
Ar -9.580816e-01 0.000000e+00 0.000000e+00
1
Step 361000
Ar -6.947104e-01 0.000000e+00 0.000000e+00
1
Step 362000
Ar -8.387898e-01 0.000000e+00 0.000000e+00
1
Step 363000
Ar -7.806452e-01 0.000000e+00 0.000000e+00
1
Step 364000
Ar -8.247654e-01 0.000000e+00 0.000000e+00
1
Step 365000
Ar -8.694640e-01 0.000000e+00 0.000000e+00
1
Step 366000
Ar -7.902372e-01 0.000000e+00 0.000000e+00
1
Step 367000
Ar -8.842566e-01 0.000000e+00 0.000000e+00
1
Step 368000
Ar -8.516936e-01 0.000000e+00 0.000000e+00
1
Step 369000
Ar -8.164968e-01 0.000000e+00 0.000000e+00
1
Step 370000
Ar -8.762510e-01 0.000000e+00 0.000000e+00
1
Step 371000
Ar -8.333773e-01 0.000000e+00 0.000000e+00
1
Step 372000
Ar -8.377491e-01 0.000000e+00 0.000000e+00
1
Step 373000
Ar -8.764759e-01 0.000000e+00 0.000000e+00
1
Step 374000
Ar -8.261255e-01 0.000000e+00 0.000000e+00
1
Step 375000
Ar -7.996805e-01 0.000000e+00 0.000000e+00
1
Step 376000
Ar -8.112484e-01 0.000000e+00 0.000000e+00
1
Step 377000
Ar -8.422298e-01 0.000000e+00 0.000000e+00
1
Step 378000
Ar -8.786409e-01 0.000000e+00 0.000000e+00
1
Step 379000
Ar -8.069614e-01 0.000000e+00 0.000000e+00
1
Step 380000
Ar -8.366771e-01 0.000000e+00 0.000000e+00
1
Step 381000
Ar -8.746496e-01 0.000000e+00 0.000000e+00
1
Step 382000
Ar -8.835289e-01 0.000000e+00 0.000000e+00
1
Step 383000
Ar -8.794447e-01 0.000000e+00 0.000000e+00
1
Step 384000
Ar -8.164522e-01 0.000000e+00 0.000000e+00
1
Step 385000
Ar -8.323706e-01 0.000000e+00 0.000000e+00
1
Step 386000
Ar -8.337378e-01 0.000000e+00 0.000000e+00
1
Step 387000
Ar -7.889065e-01 0.000000e+00 0.000000e+00
1
Step 388000
Ar -8.224813e-01 0.000000e+00 0.000000e+00
1
Step 389000
Ar -7.378515e-01 0.000000e+00 0.000000e+00
1
Step 390000
Ar -5.545740e-01 0.000000e+00 0.000000e+00
1
Step 391000
Ar -5.751698e-01 0.000000e+00 0.000000e+00
1
Step 392000
Ar -7.292168e-01 0.000000e+00 0.000000e+00
1
Step 393000
Ar -7.613956e-01 0.000000e+00 0.000000e+00
1
Step 394000
Ar -7.874654e-01 0.000000e+00 0.000000e+00
1
Step 395000
Ar -7.857138e-01 0.000000e+00 0.000000e+00
1
Step 396000
Ar -7.809557e-01 0.000000e+00 0.000000e+00
1
Step 397000
Ar -7.227563e-01 0.000000e+00 0.000000e+00
1
Step 398000
Ar -7.296724e-01 0.000000e+00 0.000000e+00
1
Step 399000
Ar -9.276467e-01 0.000000e+00 0.000000e+00
1
Step 400000
Ar -9.335193e-01 0.000000e+00 0.000000e+00
1
Step 401000
Ar -9.301391e-01 0.000000e+00 0.000000e+00
1
Step 402000
Ar -9.286172e-01 0.000000e+00 0.000000e+00
1
Step 403000
Ar -9.364471e-01 0.000000e+00 0.000000e+00
1
Step 404000
Ar -9.369922e-01 0.000000e+00 0.000000e+00
1
Step 405000
Ar -9.323850e-01 0.000000e+00 0.000000e+00
1
Step 406000
Ar -1.020265e+00 0.000000e+00 0.000000e+00
1
Step 407000
Ar -5.949979e-01 0.000000e+00 0.000000e+00
1
Step 408000
Ar -6.323537e-01 0.000000e+00 0.000000e+00
1
Step 409000
Ar -5.221987e-01 0.000000e+00 0.000000e+00
1
Step 410000
Ar -3.201083e-01 0.000000e+00 0.000000e+00
1
Step 411000
Ar -8.282919e-01 0.000000e+00 0.000000e+00
1
Step 412000
Ar -8.204948e-01 0.000000e+00 0.000000e+00
1
Step 413000
Ar -8.867968e-01 0.000000e+00 0.000000e+00
1
Step 414000
Ar -8.825756e-01 0.000000e+00 0.000000e+00
1
Step 415000
Ar -8.758506e-01 0.000000e+00 0.000000e+00
1
Step 416000
Ar -8.959977e-01 0.000000e+00 0.000000e+00
1
Step 417000
Ar -8.206657e-01 0.000000e+00 0.000000e+00
1
Step 418000
Ar -8.180685e-01 0.000000e+00 0.000000e+00
1
Step 419000
Ar -1.361348e+00 0.000000e+00 0.000000e+00
1
Step 420000
Ar -1.377596e+00 0.000000e+00 0.000000e+00
1
Step 421000
Ar -1.379898e+00 0.000000e+00 0.000000e+00
1
Step 422000
Ar -1.383116e+00 0.000000e+00 0.000000e+00
1
Step 423000
Ar -1.383166e+00 0.000000e+00 0.000000e+00
1
Step 424000
Ar -1.430037e+00 0.000000e+00 0.000000e+00
1
Step 425000
Ar -1.432230e+00 0.000000e+00 0.000000e+00
1
Step 426000
Ar -1.450835e+00 0.000000e+00 0.000000e+00
1
Step 427000
Ar -1.447342e+00 0.000000e+00 0.000000e+00
1
Step 428000
Ar -1.451469e+00 0.000000e+00 0.000000e+00
1
Step 429000
Ar -1.459054e+00 0.000000e+00 0.000000e+00
1
Step 430000
Ar -1.449905e+00 0.000000e+00 0.000000e+00
1
Step 431000
Ar -1.440126e+00 0.000000e+00 0.000000e+00
1
Step 432000
Ar -1.440178e+00 0.000000e+00 0.000000e+00
1
Step 433000
Ar -1.434304e+00 0.000000e+00 0.000000e+00
1
Step 434000
Ar -1.456766e+00 0.000000e+00 0.000000e+00
1
Step 435000
Ar -1.466110e+00 0.000000e+00 0.000000e+00
1
Step 436000
Ar -1.496753e+00 0.000000e+00 0.000000e+00
1
Step 437000
Ar -1.493495e+00 0.000000e+00 0.000000e+00
1
Step 438000
Ar -1.480219e+00 0.000000e+00 0.000000e+00
1
Step 439000
Ar -1.491166e+00 0.000000e+00 0.000000e+00
1
Step 440000
Ar -1.488311e+00 0.000000e+00 0.000000e+00
1
Step 441000
Ar -1.523302e+00 0.000000e+00 0.000000e+00
1
Step 442000
Ar -1.509046e+00 0.000000e+00 0.000000e+00
1
Step 443000
Ar -1.483101e+00 0.000000e+00 0.000000e+00
1
Step 444000
Ar -6.597840e-01 0.000000e+00 0.000000e+00
1
Step 445000
Ar -4.816404e-01 0.000000e+00 0.000000e+00
1
Step 446000
Ar -6.081713e-01 0.000000e+00 0.000000e+00
1
Step 447000
Ar -4.883287e-01 0.000000e+00 0.000000e+00
1
Step 448000
Ar -5.855454e-01 0.000000e+00 0.000000e+00
1
Step 449000
Ar -5.890037e-01 0.000000e+00 0.000000e+00
1
Step 450000
Ar -6.405510e-01 0.000000e+00 0.000000e+00
1
Step 451000
Ar -6.216243e-01 0.000000e+00 0.000000e+00
1
Step 452000
Ar -5.791138e-01 0.000000e+00 0.000000e+00
1
Step 453000
Ar -5.677680e-01 0.000000e+00 0.000000e+00
1
Step 454000
Ar -6.142827e-01 0.000000e+00 0.000000e+00
1
Step 455000
Ar -5.384209e-01 0.000000e+00 0.000000e+00
1
Step 456000
Ar -5.464575e-01 0.000000e+00 0.000000e+00
1
Step 457000
Ar -6.200441e-01 0.000000e+00 0.000000e+00
1
Step 458000
Ar -6.355950e-01 0.000000e+00 0.000000e+00
1
Step 459000
Ar -5.650665e-01 0.000000e+00 0.000000e+00
1
Step 460000
Ar -5.513144e-01 0.000000e+00 0.000000e+00
1
Step 461000
Ar -5.307925e-01 0.000000e+00 0.000000e+00
1
Step 462000
Ar -6.425815e-01 0.000000e+00 0.000000e+00
1
Step 463000
Ar -3.352103e-01 0.000000e+00 0.000000e+00
1
Step 464000
Ar -4.876448e-01 0.000000e+00 0.000000e+00
1
Step 465000
Ar -5.324104e-01 0.000000e+00 0.000000e+00
1
Step 466000
Ar -5.024450e-01 0.000000e+00 0.000000e+00
1
Step 467000
Ar -5.669497e-01 0.000000e+00 0.000000e+00
1
Step 468000
Ar -5.850811e-01 0.000000e+00 0.000000e+00
1
Step 469000
Ar -5.729121e-01 0.000000e+00 0.000000e+00
1
Step 470000
Ar -5.517502e-01 0.000000e+00 0.000000e+00
1
Step 471000
Ar -6.160780e-01 0.000000e+00 0.000000e+00
1
Step 472000
Ar -6.165916e-01 0.000000e+00 0.000000e+00
1
Step 473000
Ar -2.923427e-02 0.000000e+00 0.000000e+00
1
Step 474000
Ar -3.741540e-01 0.000000e+00 0.000000e+00
1
Step 475000
Ar -5.225493e-01 0.000000e+00 0.000000e+00
1
Step 476000
Ar -4.836779e-01 0.000000e+00 0.000000e+00
1
Step 477000
Ar -9.050343e-02 0.000000e+00 0.000000e+00
1
Step 478000
Ar -3.258358e-01 0.000000e+00 0.000000e+00
1
Step 479000
Ar -4.385098e-01 0.000000e+00 0.000000e+00
1
Step 480000
Ar -4.445009e-01 0.000000e+00 0.000000e+00
1
Step 481000
Ar -3.632026e-01 0.000000e+00 0.000000e+00
1
Step 482000
Ar 1.352494e-02 0.000000e+00 0.000000e+00
1
Step 483000
Ar -3.602736e-01 0.000000e+00 0.000000e+00
1
Step 484000
Ar -2.996027e-01 0.000000e+00 0.000000e+00
1
Step 485000
Ar -3.644871e-01 0.000000e+00 0.000000e+00
1
Step 486000
Ar -3.005511e-01 0.000000e+00 0.000000e+00
1
Step 487000
Ar -3.323658e-01 0.000000e+00 0.000000e+00
1
Step 488000
Ar -3.641575e-01 0.000000e+00 0.000000e+00
1
Step 489000
Ar -3.087625e-01 0.000000e+00 0.000000e+00
1
Step 490000
Ar -3.377306e-01 0.000000e+00 0.000000e+00
1
Step 491000
Ar -4.796829e-01 0.000000e+00 0.000000e+00
1
Step 492000
Ar -5.493476e-01 0.000000e+00 0.000000e+00
1
Step 493000
Ar -5.792894e-01 0.000000e+00 0.000000e+00
1
Step 494000
Ar -5.486248e-01 0.000000e+00 0.000000e+00
1
Step 495000
Ar -4.787910e-01 0.000000e+00 0.000000e+00
1
Step 496000
Ar -4.954990e-01 0.000000e+00 0.000000e+00
1
Step 497000
Ar -5.645200e-01 0.000000e+00 0.000000e+00
1
Step 498000
Ar -5.695004e-01 0.000000e+00 0.000000e+00
1
Step 499000
Ar -5.778924e-01 0.000000e+00 0.000000e+00
1
Step 500000
Ar -5.663084e-01 0.000000e+00 0.000000e+00
1
Step 501000
Ar -5.846511e-01 0.000000e+00 0.000000e+00
1
Step 502000
Ar -5.699516e-01 0.000000e+00 0.000000e+00
1
Step 503000
Ar -5.792309e-01 0.000000e+00 0.000000e+00
1
Step 504000
Ar -5.797644e-01 0.000000e+00 0.000000e+00
1
Step 505000
Ar -5.867657e-01 0.000000e+00 0.000000e+00
1
Step 506000
Ar -5.892572e-01 0.000000e+00 0.000000e+00
1
Step 507000
Ar -5.860475e-01 0.000000e+00 0.000000e+00
1
Step 508000
Ar -5.857906e-01 0.000000e+00 0.000000e+00
1
Step 509000
Ar -5.848018e-01 0.000000e+00 0.000000e+00
1
Step 510000
Ar -6.175098e-01 0.000000e+00 0.000000e+00
1
Step 511000
Ar -6.126702e-01 0.000000e+00 0.000000e+00
1
Step 512000
Ar -6.151566e-01 0.000000e+00 0.000000e+00
1
Step 513000
Ar -6.114819e-01 0.000000e+00 0.000000e+00
1
Step 514000
Ar -3.683212e-01 0.000000e+00 0.000000e+00
1
Step 515000
Ar -3.468275e-01 0.000000e+00 0.000000e+00
1
Step 516000
Ar -3.545416e-01 0.000000e+00 0.000000e+00
1
Step 517000
Ar -3.610459e-01 0.000000e+00 0.000000e+00
1
Step 518000
Ar -1.829720e-01 0.000000e+00 0.000000e+00
1
Step 519000
Ar -1.351080e-01 0.000000e+00 0.000000e+00
1
Step 520000
Ar -2.216266e-01 0.000000e+00 0.000000e+00
1
Step 521000
Ar -1.725994e-01 0.000000e+00 0.000000e+00
1
Step 522000
Ar -2.530494e-01 0.000000e+00 0.000000e+00
1
Step 523000
Ar -2.510524e-01 0.000000e+00 0.000000e+00
1
Step 524000
Ar -2.544828e-01 0.000000e+00 0.000000e+00
1
Step 525000
Ar 2.033931e-02 0.000000e+00 0.000000e+00
1
Step 526000
Ar -8.002416e-02 0.000000e+00 0.000000e+00
1
Step 527000
Ar -1.201450e-01 0.000000e+00 0.000000e+00
1
Step 528000
Ar -6.042203e-02 0.000000e+00 0.000000e+00
1
Step 529000
Ar -1.065424e-01 0.000000e+00 0.000000e+00
1
Step 530000
Ar 2.705539e-02 0.000000e+00 0.000000e+00
1
Step 531000
Ar -5.787611e-02 0.000000e+00 0.000000e+00
1
Step 532000
Ar -4.486413e-03 0.000000e+00 0.000000e+00
1
Step 533000
Ar -9.839846e-02 0.000000e+00 0.000000e+00
1
Step 534000
Ar 2.837053e-03 0.000000e+00 0.000000e+00
1
Step 535000
Ar -1.119574e-01 0.000000e+00 0.000000e+00
1
Step 536000
Ar 5.996920e-03 0.000000e+00 0.000000e+00
1
Step 537000
Ar 2.677776e-02 0.000000e+00 0.000000e+00
1
Step 538000
Ar 6.585935e-02 0.000000e+00 0.000000e+00
1
Step 539000
Ar 5.578446e-02 0.000000e+00 0.000000e+00
1
Step 540000
Ar 5.614516e-02 0.000000e+00 0.000000e+00
1
Step 541000
Ar 3.025470e-02 0.000000e+00 0.000000e+00
1
Step 542000
Ar 3.979251e-02 0.000000e+00 0.000000e+00
1
Step 543000
Ar 7.816438e-02 0.000000e+00 0.000000e+00
1
Step 544000
Ar 6.519594e-02 0.000000e+00 0.000000e+00
1
Step 545000
Ar 7.853951e-02 0.000000e+00 0.000000e+00
1
Step 546000
Ar 7.450372e-02 0.000000e+00 0.000000e+00
1
Step 547000
Ar 8.536065e-02 0.000000e+00 0.000000e+00
1
Step 548000
Ar 8.318279e-02 0.000000e+00 0.000000e+00
1
Step 549000
Ar 4.650919e-01 0.000000e+00 0.000000e+00
1
Step 550000
Ar 5.447780e-01 0.000000e+00 0.000000e+00
1
Step 551000
Ar 5.527286e-01 0.000000e+00 0.000000e+00
1
Step 552000
Ar 4.866257e-01 0.000000e+00 0.000000e+00
1
Step 553000
Ar 5.593903e-01 0.000000e+00 0.000000e+00
1
Step 554000
Ar 5.888760e-01 0.000000e+00 0.000000e+00
1
Step 555000
Ar 4.183159e-01 0.000000e+00 0.000000e+00
1
Step 556000
Ar 5.414627e-01 0.000000e+00 0.000000e+00
1
Step 557000
Ar 5.949734e-01 0.000000e+00 0.000000e+00
1
Step 558000
Ar 5.203397e-01 0.000000e+00 0.000000e+00
1
Step 559000
Ar 5.057625e-01 0.000000e+00 0.000000e+00
1
Step 560000
Ar 5.329696e-01 0.000000e+00 0.000000e+00
1
Step 561000
Ar 5.915160e-01 0.000000e+00 0.000000e+00
1
Step 562000
Ar 9.237002e-01 0.000000e+00 0.000000e+00
1
Step 563000
Ar 8.724933e-01 0.000000e+00 0.000000e+00
1
Step 564000
Ar 8.453382e-01 0.000000e+00 0.000000e+00
1
Step 565000
Ar 8.443146e-01 0.000000e+00 0.000000e+00
1
Step 566000
Ar 7.406471e-01 0.000000e+00 0.000000e+00
1
Step 567000
Ar 7.331467e-01 0.000000e+00 0.000000e+00
1
Step 568000
Ar 7.453576e-01 0.000000e+00 0.000000e+00
1
Step 569000
Ar 7.342807e-01 0.000000e+00 0.000000e+00
1
Step 570000
Ar 7.400701e-01 0.000000e+00 0.000000e+00
1
Step 571000
Ar 7.397123e-01 0.000000e+00 0.000000e+00
1
Step 572000
Ar 7.444908e-01 0.000000e+00 0.000000e+00
1
Step 573000
Ar 7.458278e-01 0.000000e+00 0.000000e+00
1
Step 574000
Ar 7.469471e-01 0.000000e+00 0.000000e+00
1
Step 575000
Ar 7.312167e-01 0.000000e+00 0.000000e+00
1
Step 576000
Ar 7.410315e-01 0.000000e+00 0.000000e+00
1
Step 577000
Ar 7.071823e-01 0.000000e+00 0.000000e+00
1
Step 578000
Ar 7.122717e-01 0.000000e+00 0.000000e+00
1
Step 579000
Ar 7.117772e-01 0.000000e+00 0.000000e+00
1
Step 580000
Ar 6.551048e-01 0.000000e+00 0.000000e+00
1
Step 581000
Ar 6.519758e-01 0.000000e+00 0.000000e+00
1
Step 582000
Ar 6.492428e-01 0.000000e+00 0.000000e+00
1
Step 583000
Ar 6.435877e-01 0.000000e+00 0.000000e+00
1
Step 584000
Ar 6.308824e-01 0.000000e+00 0.000000e+00
1
Step 585000
Ar 6.830394e-01 0.000000e+00 0.000000e+00
1
Step 586000
Ar 6.496035e-01 0.000000e+00 0.000000e+00
1
Step 587000
Ar 6.337107e-01 0.000000e+00 0.000000e+00
1
Step 588000
Ar 6.597395e-01 0.000000e+00 0.000000e+00
1
Step 589000
Ar 6.693603e-01 0.000000e+00 0.000000e+00
1
Step 590000
Ar 6.438578e-01 0.000000e+00 0.000000e+00
1
Step 591000
Ar 6.418028e-01 0.000000e+00 0.000000e+00
1
Step 592000
Ar 6.714836e-01 0.000000e+00 0.000000e+00
1
Step 593000
Ar 6.650154e-01 0.000000e+00 0.000000e+00
1
Step 594000
Ar 6.520497e-01 0.000000e+00 0.000000e+00
1
Step 595000
Ar 6.670797e-01 0.000000e+00 0.000000e+00
1
Step 596000
Ar 6.642082e-01 0.000000e+00 0.000000e+00
1
Step 597000
Ar 6.630000e-01 0.000000e+00 0.000000e+00
1
Step 598000
Ar 6.724095e-01 0.000000e+00 0.000000e+00
1
Step 599000
Ar 6.573236e-01 0.000000e+00 0.000000e+00
1
Step 600000
Ar 6.535184e-01 0.000000e+00 0.000000e+00
1
Step 601000
Ar 6.717621e-01 0.000000e+00 0.000000e+00
1
Step 602000
Ar 6.759849e-01 0.000000e+00 0.000000e+00
1
Step 603000
Ar 6.699804e-01 0.000000e+00 0.000000e+00
1
Step 604000
Ar 6.542571e-01 0.000000e+00 0.000000e+00
1
Step 605000
Ar 6.631360e-01 0.000000e+00 0.000000e+00
1
Step 606000
Ar 6.491473e-01 0.000000e+00 0.000000e+00
1
Step 607000
Ar 6.389540e-01 0.000000e+00 0.000000e+00
1
Step 608000
Ar 8.503141e-01 0.000000e+00 0.000000e+00
1
Step 609000
Ar 8.605205e-01 0.000000e+00 0.000000e+00
1
Step 610000
Ar 8.273849e-01 0.000000e+00 0.000000e+00
1
Step 611000
Ar 8.153670e-01 0.000000e+00 0.000000e+00
1
Step 612000
Ar 8.325716e-01 0.000000e+00 0.000000e+00
1
Step 613000
Ar 8.110442e-01 0.000000e+00 0.000000e+00
1
Step 614000
Ar 8.257009e-01 0.000000e+00 0.000000e+00
1
Step 615000
Ar 7.794126e-01 0.000000e+00 0.000000e+00
1
Step 616000
Ar 7.829259e-01 0.000000e+00 0.000000e+00
1
Step 617000
Ar 7.748879e-01 0.000000e+00 0.000000e+00
1
Step 618000
Ar 7.766518e-01 0.000000e+00 0.000000e+00
1
Step 619000
Ar 7.702589e-01 0.000000e+00 0.000000e+00
1
Step 620000
Ar 8.639627e-01 0.000000e+00 0.000000e+00
1
Step 621000
Ar 8.644237e-01 0.000000e+00 0.000000e+00
1
Step 622000
Ar 8.213922e-01 0.000000e+00 0.000000e+00
1
Step 623000
Ar 9.119150e-01 0.000000e+00 0.000000e+00
1
Step 624000
Ar 9.097784e-01 0.000000e+00 0.000000e+00
1
Step 625000
Ar 8.353512e-01 0.000000e+00 0.000000e+00
1
Step 626000
Ar 8.353253e-01 0.000000e+00 0.000000e+00
1
Step 627000
Ar 8.374094e-01 0.000000e+00 0.000000e+00
1
Step 628000
Ar 8.342787e-01 0.000000e+00 0.000000e+00
1
Step 629000
Ar 8.373872e-01 0.000000e+00 0.000000e+00
1
Step 630000
Ar 8.349680e-01 0.000000e+00 0.000000e+00
1
Step 631000
Ar 8.360841e-01 0.000000e+00 0.000000e+00
1
Step 632000
Ar 8.372603e-01 0.000000e+00 0.000000e+00
1
Step 633000
Ar 8.054408e-01 0.000000e+00 0.000000e+00
1
Step 634000
Ar 7.481869e-01 0.000000e+00 0.000000e+00
1
Step 635000
Ar 8.057027e-01 0.000000e+00 0.000000e+00
1
Step 636000
Ar 1.255023e+00 0.000000e+00 0.000000e+00
1
Step 637000
Ar 1.271902e+00 0.000000e+00 0.000000e+00
1
Step 638000
Ar 1.214260e+00 0.000000e+00 0.000000e+00
1
Step 639000
Ar 1.264687e+00 0.000000e+00 0.000000e+00
1
Step 640000
Ar 1.218166e+00 0.000000e+00 0.000000e+00
1
Step 641000
Ar 1.231232e+00 0.000000e+00 0.000000e+00
1
Step 642000
Ar 1.074016e+00 0.000000e+00 0.000000e+00
1
Step 643000
Ar 1.056137e+00 0.000000e+00 0.000000e+00
1
Step 644000
Ar 1.057389e+00 0.000000e+00 0.000000e+00
1
Step 645000
Ar 1.053877e+00 0.000000e+00 0.000000e+00
1
Step 646000
Ar 1.056712e+00 0.000000e+00 0.000000e+00
1
Step 647000
Ar 1.069507e+00 0.000000e+00 0.000000e+00
1
Step 648000
Ar 1.060772e+00 0.000000e+00 0.000000e+00
1
Step 649000
Ar 1.061250e+00 0.000000e+00 0.000000e+00
1
Step 650000