1
Step 120000
Ar 9.640590e-01 0.000000e+00 0.000000e+00
1
Step 121000
Ar 1.130912e+00 0.000000e+00 0.000000e+00
1
Step 122000
Ar 1.145354e+00 0.000000e+00 0.000000e+00
1
Step 123000
Ar 1.022585e+00 0.000000e+00 0.000000e+00
1
Step 124000
Ar 1.152960e+00 0.000000e+00 0.000000e+00
1
Step 125000
Ar 9.931478e-01 0.000000e+00 0.000000e+00
1
Step 126000
Ar 8.520682e-01 0.000000e+00 0.000000e+00
1
Step 127000
Ar 8.995826e-01 0.000000e+00 0.000000e+00
1
Step 128000
Ar 8.690280e-01 0.000000e+00 0.000000e+00
1
Step 129000
Ar 9.474257e-01 0.000000e+00 0.000000e+00
1
Step 130000
Ar 9.124507e-01 0.000000e+00 0.000000e+00
1
Step 131000
Ar 8.426470e-01 0.000000e+00 0.000000e+00
1
Step 132000
Ar 8.986827e-01 0.000000e+00 0.000000e+00
1
Step 133000
Ar 9.164922e-01 0.000000e+00 0.000000e+00
1
Step 134000
Ar 8.701100e-01 0.000000e+00 0.000000e+00
1
Step 135000
Ar 8.529443e-01 0.000000e+00 0.000000e+00
1
Step 136000
Ar 8.717649e-01 0.000000e+00 0.000000e+00
1
Step 137000
Ar 8.744440e-01 0.000000e+00 0.000000e+00
1
Step 138000
Ar 8.603700e-01 0.000000e+00 0.000000e+00
1
Step 139000
Ar 8.763154e-01 0.000000e+00 0.000000e+00
1
Step 140000
Ar 8.435781e-01 0.000000e+00 0.000000e+00
1
Step 141000
Ar 8.430899e-01 0.000000e+00 0.000000e+00
1
Step 142000
Ar 8.750752e-01 0.000000e+00 0.000000e+00
1
Step 143000
Ar 8.718238e-01 0.000000e+00 0.000000e+00
1
Step 144000
Ar 8.706899e-01 0.000000e+00 0.000000e+00
1
Step 145000
Ar 9.176611e-01 0.000000e+00 0.000000e+00
1
Step 146000
Ar 9.033137e-01 0.000000e+00 0.000000e+00
1
Step 147000
Ar 9.066451e-01 0.000000e+00 0.000000e+00
1
Step 148000
Ar 9.079735e-01 0.000000e+00 0.000000e+00
1
Step 149000
Ar 9.015906e-01 0.000000e+00 0.000000e+00
1
Step 150000
Ar 9.037250e-01 0.000000e+00 0.000000e+00
1
Step 151000
Ar 9.099765e-01 0.000000e+00 0.000000e+00
1
Step 152000
Ar 9.017401e-01 0.000000e+00 0.000000e+00
1
Step 153000
Ar 8.974428e-01 0.000000e+00 0.000000e+00
1
Step 154000
Ar 8.979637e-01 0.000000e+00 0.000000e+00
1
Step 155000
Ar 8.962968e-01 0.000000e+00 0.000000e+00
1
Step 156000
Ar 1.295894e+00 0.000000e+00 0.000000e+00
1
Step 157000
Ar 1.106816e+00 0.000000e+00 0.000000e+00
1
Step 158000
Ar 1.053908e+00 0.000000e+00 0.000000e+00
1
Step 159000
Ar 1.144702e+00 0.000000e+00 0.000000e+00
1
Step 160000
Ar 1.060503e+00 0.000000e+00 0.000000e+00
1
Step 161000
Ar 1.054602e+00 0.000000e+00 0.000000e+00
1
Step 162000
Ar 1.155734e+00 0.000000e+00 0.000000e+00
1
Step 163000
Ar 1.095019e+00 0.000000e+00 0.000000e+00
1
Step 164000
Ar 1.112288e+00 0.000000e+00 0.000000e+00
1
Step 165000
Ar 1.053871e+00 0.000000e+00 0.000000e+00
1
Step 166000
Ar 1.008949e+00 0.000000e+00 0.000000e+00
1
Step 167000
Ar 1.022629e+00 0.000000e+00 0.000000e+00
1
Step 168000
Ar 1.071462e+00 0.000000e+00 0.000000e+00
1
Step 169000
Ar 1.082828e+00 0.000000e+00 0.000000e+00
1
Step 170000
Ar 1.081785e+00 0.000000e+00 0.000000e+00
1
Step 171000
Ar 9.749252e-01 0.000000e+00 0.000000e+00
1
Step 172000
Ar 9.690832e-01 0.000000e+00 0.000000e+00
1
Step 173000
Ar 9.679371e-01 0.000000e+00 0.000000e+00
1
Step 174000
Ar 9.452635e-01 0.000000e+00 0.000000e+00
1
Step 175000
Ar 1.151512e+00 0.000000e+00 0.000000e+00
1
Step 176000
Ar 1.173989e+00 0.000000e+00 0.000000e+00
1
Step 177000
Ar 1.140712e+00 0.000000e+00 0.000000e+00
1
Step 178000
Ar 1.109994e+00 0.000000e+00 0.000000e+00
1
Step 179000
Ar 1.151166e+00 0.000000e+00 0.000000e+00
1
Step 180000
Ar 1.152392e+00 0.000000e+00 0.000000e+00
1
Step 181000
Ar 1.125061e+00 0.000000e+00 0.000000e+00
1
Step 182000
Ar 1.128555e+00 0.000000e+00 0.000000e+00
1
Step 183000
Ar 1.122303e+00 0.000000e+00 0.000000e+00
1
Step 184000
Ar 1.127141e+00 0.000000e+00 0.000000e+00
1
Step 185000
Ar 1.122693e+00 0.000000e+00 0.000000e+00
1
Step 186000
Ar 1.048537e+00 0.000000e+00 0.000000e+00
1
Step 187000
Ar 1.007536e+00 0.000000e+00 0.000000e+00
1
Step 188000
Ar 1.007004e+00 0.000000e+00 0.000000e+00
1
Step 189000
Ar 1.032287e+00 0.000000e+00 0.000000e+00
1
Step 190000
Ar 1.056681e+00 0.000000e+00 0.000000e+00
1
Step 191000
Ar 1.058672e+00 0.000000e+00 0.000000e+00
1
Step 192000
Ar 1.034971e+00 0.000000e+00 0.000000e+00
1
Step 193000
Ar 1.028374e+00 0.000000e+00 0.000000e+00
1
Step 194000
Ar 9.216481e-01 0.000000e+00 0.000000e+00
1
Step 195000
Ar 7.812744e-01 0.000000e+00 0.000000e+00
1
Step 196000
Ar 7.026964e-01 0.000000e+00 0.000000e+00
1
Step 197000
Ar 7.581517e-01 0.000000e+00 0.000000e+00
1
Step 198000
Ar 7.580721e-01 0.000000e+00 0.000000e+00
1
Step 199000
Ar 7.476942e-01 0.000000e+00 0.000000e+00
1
Step 200000
Ar 5.506915e-01 0.000000e+00 0.000000e+00
1
Step 201000
Ar 3.674848e-01 0.000000e+00 0.000000e+00
1
Step 202000
Ar 4.418668e-01 0.000000e+00 0.000000e+00
1
Step 203000
Ar 3.352267e-01 0.000000e+00 0.000000e+00
1
Step 204000
Ar -1.106098e+00 0.000000e+00 0.000000e+00
1
Step 205000
Ar -8.955073e-01 0.000000e+00 0.000000e+00
1
Step 206000
Ar -7.680732e-01 0.000000e+00 0.000000e+00
1
Step 207000
Ar -9.183856e-01 0.000000e+00 0.000000e+00
1
Step 208000
Ar -1.176693e+00 0.000000e+00 0.000000e+00
1
Step 209000
Ar -9.750146e-01 0.000000e+00 0.000000e+00
1
Step 210000
Ar -9.646380e-01 0.000000e+00 0.000000e+00
1
Step 211000
Ar -1.059783e+00 0.000000e+00 0.000000e+00
1
Step 212000
Ar -8.857634e-01 0.000000e+00 0.000000e+00
1
Step 213000
Ar -8.768347e-01 0.000000e+00 0.000000e+00
1
Step 214000
Ar -9.614689e-01 0.000000e+00 0.000000e+00
1
Step 215000
Ar -1.012587e+00 0.000000e+00 0.000000e+00
1
Step 216000
Ar -1.156977e+00 0.000000e+00 0.000000e+00
1
Step 217000
Ar -1.082087e+00 0.000000e+00 0.000000e+00
1
Step 218000
Ar -9.214114e-01 0.000000e+00 0.000000e+00
1
Step 219000
Ar -1.139749e+00 0.000000e+00 0.000000e+00
1
Step 220000
Ar -1.131003e+00 0.000000e+00 0.000000e+00
1
Step 221000
Ar -1.035874e+00 0.000000e+00 0.000000e+00
1
Step 222000
Ar -1.095630e+00 0.000000e+00 0.000000e+00
1
Step 223000
Ar -9.438736e-01 0.000000e+00 0.000000e+00
1
Step 224000
Ar -9.612557e-01 0.000000e+00 0.000000e+00
1
Step 225000
Ar -1.056410e+00 0.000000e+00 0.000000e+00
1
Step 226000
Ar -1.119415e+00 0.000000e+00 0.000000e+00
1
Step 227000
Ar -9.205266e-01 0.000000e+00 0.000000e+00
1
Step 228000
Ar -1.116093e+00 0.000000e+00 0.000000e+00
1
Step 229000
Ar -9.084539e-01 0.000000e+00 0.000000e+00
1
Step 230000
Ar -9.899286e-01 0.000000e+00 0.000000e+00
1
Step 231000
Ar -9.192573e-01 0.000000e+00 0.000000e+00
1
Step 232000
Ar -1.031185e+00 0.000000e+00 0.000000e+00
1
Step 233000
Ar -1.144277e+00 0.000000e+00 0.000000e+00
1
Step 234000
Ar -9.339807e-01 0.000000e+00 0.000000e+00
1
Step 235000
Ar -1.048323e+00 0.000000e+00 0.000000e+00
1
Step 236000
Ar -1.074932e+00 0.000000e+00 0.000000e+00
1
Step 237000
Ar -9.153081e-01 0.000000e+00 0.000000e+00
1
Step 238000
Ar -1.098732e+00 0.000000e+00 0.000000e+00
1
Step 239000
Ar -9.593044e-01 0.000000e+00 0.000000e+00
1
Step 240000
Ar -1.003118e+00 0.000000e+00 0.000000e+00
1
Step 241000
Ar -1.076816e+00 0.000000e+00 0.000000e+00
1
Step 242000
Ar -1.002471e+00 0.000000e+00 0.000000e+00
1
Step 243000
Ar -9.530447e-01 0.000000e+00 0.000000e+00
1
Step 244000
Ar -1.109119e+00 0.000000e+00 0.000000e+00
1
Step 245000
Ar -1.105658e+00 0.000000e+00 0.000000e+00
1
Step 246000
Ar -9.648396e-01 0.000000e+00 0.000000e+00
1
Step 247000
Ar -1.059621e+00 0.000000e+00 0.000000e+00
1
Step 248000
Ar -8.032810e-01 0.000000e+00 0.000000e+00
1
Step 249000
Ar -8.427513e-01 0.000000e+00 0.000000e+00
1
Step 250000
Ar -8.403362e-01 0.000000e+00 0.000000e+00
1
Step 251000
Ar -8.479638e-01 0.000000e+00 0.000000e+00
1
Step 252000
Ar -8.741622e-01 0.000000e+00 0.000000e+00
1
Step 253000
Ar -8.740269e-01 0.000000e+00 0.000000e+00
1
Step 254000
Ar -8.794163e-01 0.000000e+00 0.000000e+00
1
Step 255000
Ar -8.682201e-01 0.000000e+00 0.000000e+00
1
Step 256000
Ar -8.731614e-01 0.000000e+00 0.000000e+00
1
Step 257000
Ar -8.733714e-01 0.000000e+00 0.000000e+00
1
Step 258000
Ar -8.698018e-01 0.000000e+00 0.000000e+00
1
Step 259000
Ar -8.682796e-01 0.000000e+00 0.000000e+00
1
Step 260000
Ar -8.755089e-01 0.000000e+00 0.000000e+00
1
Step 261000
Ar -8.738735e-01 0.000000e+00 0.000000e+00
1
Step 262000
Ar -8.776527e-01 0.000000e+00 0.000000e+00
1
Step 263000
Ar -8.761791e-01 0.000000e+00 0.000000e+00
1
Step 264000
Ar -8.746113e-01 0.000000e+00 0.000000e+00
1
Step 265000
Ar -8.744251e-01 0.000000e+00 0.000000e+00
1
Step 266000
Ar -8.747015e-01 0.000000e+00 0.000000e+00
1
Step 267000
Ar -8.715306e-01 0.000000e+00 0.000000e+00
1
Step 268000
Ar -9.210537e-01 0.000000e+00 0.000000e+00
1
Step 269000
Ar -8.977830e-01 0.000000e+00 0.000000e+00
1
Step 270000
Ar -9.162730e-01 0.000000e+00 0.000000e+00
1
Step 271000
Ar -9.169100e-01 0.000000e+00 0.000000e+00
1
Step 272000
Ar -8.207566e-01 0.000000e+00 0.000000e+00
1
Step 273000
Ar -8.197778e-01 0.000000e+00 0.000000e+00
1
Step 274000
Ar -7.946717e-01 0.000000e+00 0.000000e+00
1
Step 275000
Ar -8.289874e-01 0.000000e+00 0.000000e+00
1
Step 276000
Ar -6.614275e-01 0.000000e+00 0.000000e+00
1
Step 277000
Ar -8.458999e-01 0.000000e+00 0.000000e+00
1
Step 278000
Ar -8.512316e-01 0.000000e+00 0.000000e+00
1
Step 279000
Ar -7.810418e-01 0.000000e+00 0.000000e+00
1
Step 280000
Ar -7.300177e-01 0.000000e+00 0.000000e+00
1
Step 281000
Ar -6.058210e-01 0.000000e+00 0.000000e+00
1
Step 282000
Ar -6.938422e-01 0.000000e+00 0.000000e+00
1
Step 283000
Ar -6.017882e-01 0.000000e+00 0.000000e+00
1
Step 284000
Ar -7.155506e-01 0.000000e+00 0.000000e+00
1
Step 285000
Ar -3.132792e-01 0.000000e+00 0.000000e+00
1
Step 286000
Ar -8.100896e-01 0.000000e+00 0.000000e+00
1
Step 287000
Ar -8.161911e-01 0.000000e+00 0.000000e+00
1
Step 288000
Ar -8.184914e-01 0.000000e+00 0.000000e+00
1
Step 289000
Ar -8.143642e-01 0.000000e+00 0.000000e+00
1
Step 290000
Ar -7.081735e-01 0.000000e+00 0.000000e+00
1
Step 291000
Ar -7.035716e-01 0.000000e+00 0.000000e+00
1
Step 292000
Ar -6.966006e-01 0.000000e+00 0.000000e+00
1
Step 293000
Ar -7.100897e-01 0.000000e+00 0.000000e+00
1
Step 294000
Ar -6.273019e-01 0.000000e+00 0.000000e+00
1
Step 295000
Ar -6.559361e-01 0.000000e+00 0.000000e+00
1
Step 296000
Ar -6.408620e-01 0.000000e+00 0.000000e+00
1
Step 297000
Ar -5.611445e-01 0.000000e+00 0.000000e+00
1
Step 298000
Ar -5.850589e-01 0.000000e+00 0.000000e+00
1
Step 299000
Ar -5.350442e-01 0.000000e+00 0.000000e+00
1
Step 300000
Ar -4.150983e-01 0.000000e+00 0.000000e+00
1
Step 301000
Ar -5.897011e-01 0.000000e+00 0.000000e+00
1
Step 302000
Ar -2.430832e-01 0.000000e+00 0.000000e+00
1
Step 303000
Ar -5.718710e-01 0.000000e+00 0.000000e+00
1
Step 304000
Ar -5.847804e-01 0.000000e+00 0.000000e+00
1
Step 305000
Ar -5.902915e-01 0.000000e+00 0.000000e+00
1
Step 306000
Ar -7.057478e-01 0.000000e+00 0.000000e+00
1
Step 307000
Ar -7.236634e-01 0.000000e+00 0.000000e+00
1
Step 308000
Ar -7.161513e-01 0.000000e+00 0.000000e+00
1
Step 309000
Ar -7.207876e-01 0.000000e+00 0.000000e+00
1
Step 310000
Ar -7.276302e-01 0.000000e+00 0.000000e+00
1
Step 311000
Ar -7.010719e-01 0.000000e+00 0.000000e+00
1
Step 312000
Ar -7.199427e-01 0.000000e+00 0.000000e+00
1
Step 313000
Ar -7.301724e-01 0.000000e+00 0.000000e+00
1
Step 314000
Ar -7.039676e-01 0.000000e+00 0.000000e+00
1
Step 315000
Ar -7.294318e-01 0.000000e+00 0.000000e+00
1
Step 316000
Ar -7.260361e-01 0.000000e+00 0.000000e+00
1
Step 317000
Ar -7.221070e-01 0.000000e+00 0.000000e+00
1
Step 318000
Ar -7.246208e-01 0.000000e+00 0.000000e+00
1
Step 319000
Ar -7.255179e-01 0.000000e+00 0.000000e+00
1
Step 320000
Ar -7.464183e-01 0.000000e+00 0.000000e+00
1
Step 321000
Ar -1.683388e-01 0.000000e+00 0.000000e+00
1
Step 322000
Ar -4.320890e-01 0.000000e+00 0.000000e+00
1
Step 323000
Ar -3.568075e-01 0.000000e+00 0.000000e+00
1
Step 324000
Ar -5.706287e-01 0.000000e+00 0.000000e+00
1
Step 325000
Ar -5.760182e-01 0.000000e+00 0.000000e+00
1
Step 326000
Ar -5.064613e-01 0.000000e+00 0.000000e+00
1
Step 327000
Ar -5.271189e-01 0.000000e+00 0.000000e+00
1
Step 328000
Ar -4.684493e-01 0.000000e+00 0.000000e+00
1
Step 329000
Ar -5.731026e-01 0.000000e+00 0.000000e+00
1
Step 330000
Ar -4.281912e-01 0.000000e+00 0.000000e+00
1
Step 331000
Ar -4.454601e-01 0.000000e+00 0.000000e+00
1
Step 332000
Ar -5.342889e-01 0.000000e+00 0.000000e+00
1
Step 333000
Ar -4.648709e-01 0.000000e+00 0.000000e+00
1
Step 334000
Ar -5.694486e-01 0.000000e+00 0.000000e+00
1
Step 335000
Ar -5.305457e-01 0.000000e+00 0.000000e+00
1
Step 336000
Ar -4.835652e-01 0.000000e+00 0.000000e+00
1
Step 337000
Ar -5.233998e-01 0.000000e+00 0.000000e+00
1
Step 338000
Ar -4.582636e-01 0.000000e+00 0.000000e+00
1
Step 339000
Ar -5.365437e-01 0.000000e+00 0.000000e+00
1
Step 340000
Ar -4.844135e-01 0.000000e+00 0.000000e+00
1
Step 341000
Ar 2.166877e-01 0.000000e+00 0.000000e+00
1
Step 342000
Ar -7.000501e-01 0.000000e+00 0.000000e+00
1
Step 343000
Ar -7.788185e-01 0.000000e+00 0.000000e+00
1
Step 344000
Ar -7.772844e-01 0.000000e+00 0.000000e+00
1
Step 345000
Ar -7.809331e-01 0.000000e+00 0.000000e+00
1
Step 346000
Ar -7.767525e-01 0.000000e+00 0.000000e+00
1
Step 347000
Ar -7.655199e-01 0.000000e+00 0.000000e+00
1
Step 348000
Ar -7.904616e-01 0.000000e+00 0.000000e+00
1
Step 349000
Ar -7.824069e-01 0.000000e+00 0.000000e+00
1
Step 350000
Ar -7.865610e-01 0.000000e+00 0.000000e+00
1
Step 351000
Ar -7.927715e-01 0.000000e+00 0.000000e+00
1
Step 352000
Ar -7.941724e-01 0.000000e+00 0.000000e+00
1
Step 353000
Ar -7.798858e-01 0.000000e+00 0.000000e+00
1
Step 354000
Ar -7.938703e-01 0.000000e+00 0.000000e+00
1
Step 355000
Ar -7.706728e-01 0.000000e+00 0.000000e+00
1
Step 356000
Ar -7.709023e-01 0.000000e+00 0.000000e+00
1
Step 357000
Ar -7.933352e-01 0.000000e+00 0.000000e+00
1
Step 358000
Ar -7.334286e-01 0.000000e+00 0.000000e+00
1
Step 359000
Ar -8.129266e-01 0.000000e+00 0.000000e+00
1
Step 360000
Ar -7.976254e-01 0.000000e+00 0.000000e+00
1
Step 361000
Ar -5.330938e-01 0.000000e+00 0.000000e+00
1
Step 362000
Ar -3.981024e-01 0.000000e+00 0.000000e+00
1
Step 363000
Ar -5.463389e-01 0.000000e+00 0.000000e+00
1
Step 364000
Ar -4.639384e-01 0.000000e+00 0.000000e+00
1
Step 365000
Ar -3.862116e-01 0.000000e+00 0.000000e+00
1
Step 366000
Ar 2.220031e-01 0.000000e+00 0.000000e+00
1
Step 367000
Ar -4.774251e-01 0.000000e+00 0.000000e+00
1
Step 368000
Ar -4.967919e-01 0.000000e+00 0.000000e+00
1
Step 369000
Ar -5.090223e-01 0.000000e+00 0.000000e+00
1
Step 370000
Ar -5.290320e-01 0.000000e+00 0.000000e+00
1
Step 371000
Ar -5.075625e-01 0.000000e+00 0.000000e+00
1
Step 372000
Ar -4.509664e-01 0.000000e+00 0.000000e+00
1
Step 373000
Ar -4.041161e-01 0.000000e+00 0.000000e+00
1
Step 374000
Ar -4.710007e-01 0.000000e+00 0.000000e+00
1
Step 375000
Ar -4.317705e-01 0.000000e+00 0.000000e+00
1
Step 376000
Ar -4.463886e-01 0.000000e+00 0.000000e+00
1
Step 377000
Ar -4.000419e-01 0.000000e+00 0.000000e+00
1
Step 378000
Ar -4.956636e-01 0.000000e+00 0.000000e+00
1
Step 379000
Ar -3.516989e-01 0.000000e+00 0.000000e+00
1
Step 380000
Ar -4.736969e-01 0.000000e+00 0.000000e+00
1
Step 381000
Ar -4.298726e-01 0.000000e+00 0.000000e+00
1
Step 382000
Ar -4.077831e-01 0.000000e+00 0.000000e+00
1
Step 383000
Ar -4.358332e-01 0.000000e+00 0.000000e+00
1
Step 384000
Ar 1.796291e-02 0.000000e+00 0.000000e+00
1
Step 385000
Ar -8.036887e-02 0.000000e+00 0.000000e+00
1
Step 386000
Ar 1.957840e-01 0.000000e+00 0.000000e+00
1
Step 387000
Ar -3.365912e-01 0.000000e+00 0.000000e+00
1
Step 388000
Ar -3.882868e-01 0.000000e+00 0.000000e+00
1
Step 389000
Ar -5.996925e-01 0.000000e+00 0.000000e+00
1
Step 390000
Ar -6.020009e-01 0.000000e+00 0.000000e+00
1
Step 391000
Ar -5.960744e-01 0.000000e+00 0.000000e+00
1
Step 392000
Ar -6.239390e-01 0.000000e+00 0.000000e+00
1
Step 393000
Ar -5.819494e-01 0.000000e+00 0.000000e+00
1
Step 394000
Ar -2.297253e-01 0.000000e+00 0.000000e+00
1
Step 395000
Ar 5.442859e-02 0.000000e+00 0.000000e+00
1
Step 396000
Ar -2.722516e-01 0.000000e+00 0.000000e+00
1
Step 397000
Ar -2.385478e-01 0.000000e+00 0.000000e+00
1
Step 398000
Ar 1.729719e-01 0.000000e+00 0.000000e+00
1
Step 399000
Ar 1.984627e-01 0.000000e+00 0.000000e+00
1
Step 400000
Ar -5.166334e-02 0.000000e+00 0.000000e+00
1
Step 401000
Ar -1.791190e-01 0.000000e+00 0.000000e+00
1
Step 402000
Ar 1.594209e-01 0.000000e+00 0.000000e+00
1
Step 403000
Ar 2.215512e-01 0.000000e+00 0.000000e+00
1
Step 404000
Ar 2.670466e-01 0.000000e+00 0.000000e+00
1
Step 405000
Ar 3.242845e-01 0.000000e+00 0.000000e+00
1
Step 406000
Ar 3.466641e-01 0.000000e+00 0.000000e+00
1
Step 407000
Ar 4.254279e-01 0.000000e+00 0.000000e+00
1
Step 408000
Ar 4.494113e-01 0.000000e+00 0.000000e+00
1
Step 409000
Ar 3.893243e-01 0.000000e+00 0.000000e+00
1
Step 410000
Ar 4.592441e-01 0.000000e+00 0.000000e+00
1
Step 411000
Ar 3.372047e-01 0.000000e+00 0.000000e+00
1
Step 412000
Ar 4.536897e-01 0.000000e+00 0.000000e+00
1
Step 413000
Ar 3.448606e-01 0.000000e+00 0.000000e+00
1
Step 414000
Ar 4.066930e-01 0.000000e+00 0.000000e+00
1
Step 415000
Ar 4.608860e-01 0.000000e+00 0.000000e+00
1
Step 416000
Ar 4.161624e-01 0.000000e+00 0.000000e+00
1
Step 417000
Ar 4.019261e-01 0.000000e+00 0.000000e+00
1
Step 418000
Ar 3.509078e-01 0.000000e+00 0.000000e+00
1
Step 419000
Ar 4.197539e-01 0.000000e+00 0.000000e+00
1
Step 420000
Ar 4.509150e-01 0.000000e+00 0.000000e+00
1
Step 421000
Ar 4.600605e-01 0.000000e+00 0.000000e+00
1
Step 422000
Ar 3.682876e-01 0.000000e+00 0.000000e+00
1
Step 423000
Ar 8.935162e-01 0.000000e+00 0.000000e+00
1
Step 424000
Ar 5.855967e-01 0.000000e+00 0.000000e+00
1
Step 425000
Ar 5.801036e-01 0.000000e+00 0.000000e+00
1
Step 426000
Ar 6.024692e-01 0.000000e+00 0.000000e+00
1
Step 427000
Ar 6.946709e-01 0.000000e+00 0.000000e+00
1
Step 428000
Ar 7.977856e-01 0.000000e+00 0.000000e+00
1
Step 429000
Ar 7.953653e-01 0.000000e+00 0.000000e+00
1
Step 430000
Ar 7.963002e-01 0.000000e+00 0.000000e+00
1
Step 431000
Ar 7.716532e-01 0.000000e+00 0.000000e+00
1
Step 432000
Ar 7.761552e-01 0.000000e+00 0.000000e+00
1
Step 433000
Ar 7.623373e-01 0.000000e+00 0.000000e+00
1
Step 434000
Ar 7.853086e-01 0.000000e+00 0.000000e+00
1
Step 435000
Ar 7.966363e-01 0.000000e+00 0.000000e+00
1
Step 436000
Ar 7.596617e-01 0.000000e+00 0.000000e+00
1
Step 437000
Ar 7.940106e-01 0.000000e+00 0.000000e+00
1
Step 438000
Ar 7.703317e-01 0.000000e+00 0.000000e+00
1
Step 439000
Ar 7.787622e-01 0.000000e+00 0.000000e+00
1
Step 440000
Ar 7.976666e-01 0.000000e+00 0.000000e+00
1
Step 441000
Ar 7.826074e-01 0.000000e+00 0.000000e+00
1
Step 442000
Ar 7.883109e-01 0.000000e+00 0.000000e+00
1
Step 443000
Ar 7.942393e-01 0.000000e+00 0.000000e+00
1
Step 444000
Ar 7.964062e-01 0.000000e+00 0.000000e+00
1
Step 445000
Ar 7.920412e-01 0.000000e+00 0.000000e+00
1
Step 446000
Ar 7.975560e-01 0.000000e+00 0.000000e+00
1
Step 447000
Ar 7.722089e-01 0.000000e+00 0.000000e+00
1
Step 448000
Ar 7.621005e-01 0.000000e+00 0.000000e+00
1
Step 449000
Ar 7.716929e-01 0.000000e+00 0.000000e+00
1
Step 450000
Ar 7.608953e-01 0.000000e+00 0.000000e+00
1
Step 451000
Ar 7.700574e-01 0.000000e+00 0.000000e+00
1
Step 452000
Ar 7.671399e-01 0.000000e+00 0.000000e+00
1
Step 453000
Ar 7.708411e-01 0.000000e+00 0.000000e+00
1
Step 454000
Ar 7.654699e-01 0.000000e+00 0.000000e+00
1
Step 455000
Ar 8.026504e-01 0.000000e+00 0.000000e+00
1
Step 456000
Ar 7.992484e-01 0.000000e+00 0.000000e+00
1
Step 457000
Ar 7.960900e-01 0.000000e+00 0.000000e+00
1
Step 458000
Ar 8.018707e-01 0.000000e+00 0.000000e+00
1
Step 459000
Ar 7.967911e-01 0.000000e+00 0.000000e+00
1
Step 460000
Ar 8.001491e-01 0.000000e+00 0.000000e+00
1
Step 461000
Ar 7.952808e-01 0.000000e+00 0.000000e+00
1
Step 462000
Ar 7.961586e-01 0.000000e+00 0.000000e+00
1
Step 463000
Ar 8.768726e-01 0.000000e+00 0.000000e+00
1
Step 464000
Ar 8.797637e-01 0.000000e+00 0.000000e+00
1
Step 465000
Ar 3.585263e-01 0.000000e+00 0.000000e+00
1
Step 466000
Ar 4.411582e-01 0.000000e+00 0.000000e+00
1
Step 467000
Ar 4.402710e-01 0.000000e+00 0.000000e+00
1
Step 468000
Ar 4.452767e-01 0.000000e+00 0.000000e+00
1
Step 469000
Ar 4.476367e-01 0.000000e+00 0.000000e+00
1
Step 470000
Ar 4.472832e-01 0.000000e+00 0.000000e+00
1
Step 471000
Ar 4.449367e-01 0.000000e+00 0.000000e+00
1
Step 472000
Ar 4.418489e-01 0.000000e+00 0.000000e+00
1
Step 473000
Ar 4.426484e-01 0.000000e+00 0.000000e+00
1
Step 474000
Ar 4.459758e-01 0.000000e+00 0.000000e+00
1
Step 475000
Ar 4.444062e-01 0.000000e+00 0.000000e+00
1
Step 476000
Ar 4.453261e-01 0.000000e+00 0.000000e+00
1
Step 477000
Ar 4.412375e-01 0.000000e+00 0.000000e+00
1
Step 478000
Ar 4.435137e-01 0.000000e+00 0.000000e+00
1
Step 479000
Ar 4.401309e-01 0.000000e+00 0.000000e+00
1
Step 480000
Ar 4.416772e-01 0.000000e+00 0.000000e+00
1
Step 481000
Ar 3.317066e-01 0.000000e+00 0.000000e+00
1
Step 482000
Ar 4.091627e-01 0.000000e+00 0.000000e+00
1
Step 483000
Ar 3.332314e-01 0.000000e+00 0.000000e+00
1
Step 484000
Ar 3.905894e-01 0.000000e+00 0.000000e+00
1
Step 485000
Ar 3.416288e-01 0.000000e+00 0.000000e+00
1
Step 486000
Ar 6.182351e-01 0.000000e+00 0.000000e+00
1
Step 487000
Ar 6.909317e-01 0.000000e+00 0.000000e+00
1
Step 488000
Ar 6.055157e-01 0.000000e+00 0.000000e+00
1
Step 489000
Ar 6.779374e-01 0.000000e+00 0.000000e+00
1
Step 490000
Ar 6.349366e-01 0.000000e+00 0.000000e+00
1
Step 491000
Ar 6.531766e-01 0.000000e+00 0.000000e+00
1
Step 492000
Ar 4.973212e-01 0.000000e+00 0.000000e+00
1
Step 493000
Ar 5.765356e-01 0.000000e+00 0.000000e+00
1
Step 494000
Ar 5.589593e-01 0.000000e+00 0.000000e+00
1
Step 495000
Ar 6.789217e-01 0.000000e+00 0.000000e+00
1
Step 496000
Ar 6.455719e-01 0.000000e+00 0.000000e+00
1
Step 497000
Ar 6.764878e-01 0.000000e+00 0.000000e+00
1
Step 498000
Ar 6.754250e-01 0.000000e+00 0.000000e+00
1
Step 499000
Ar 6.339615e-01 0.000000e+00 0.000000e+00
1
Step 500000
Ar 6.817570e-01 0.000000e+00 0.000000e+00
1
Step 501000
Ar 6.855991e-01 0.000000e+00 0.000000e+00
1
Step 502000
Ar 6.804369e-01 0.000000e+00 0.000000e+00
1
Step 503000
Ar 6.229304e-01 0.000000e+00 0.000000e+00
1
Step 504000
Ar 6.213478e-01 0.000000e+00 0.000000e+00
1
Step 505000
Ar 6.138360e-01 0.000000e+00 0.000000e+00
1
Step 506000
Ar 5.580823e-01 0.000000e+00 0.000000e+00
1
Step 507000
Ar 5.782304e-01 0.000000e+00 0.000000e+00
1
Step 508000
Ar 6.467313e-01 0.000000e+00 0.000000e+00
1
Step 509000
Ar 4.867698e-01 0.000000e+00 0.000000e+00
1
Step 510000
Ar 6.150036e-01 0.000000e+00 0.000000e+00
1
Step 511000
Ar 5.574798e-01 0.000000e+00 0.000000e+00
1
Step 512000
Ar 6.467020e-01 0.000000e+00 0.000000e+00
1
Step 513000
Ar 5.561392e-01 0.000000e+00 0.000000e+00
1
Step 514000
Ar 5.735329e-01 0.000000e+00 0.000000e+00
1
Step 515000
Ar 4.882091e-01 0.000000e+00 0.000000e+00
1
Step 516000
Ar 5.251071e-01 0.000000e+00 0.000000e+00
1
Step 517000
Ar 5.662816e-01 0.000000e+00 0.000000e+00
1
Step 518000
Ar 6.227943e-01 0.000000e+00 0.000000e+00
1
Step 519000
Ar 6.278870e-01 0.000000e+00 0.000000e+00
1
Step 520000
Ar 6.099730e-01 0.000000e+00 0.000000e+00
1
Step 521000
Ar 6.428069e-01 0.000000e+00 0.000000e+00
1
Step 522000
Ar 6.189803e-01 0.000000e+00 0.000000e+00
1
Step 523000
Ar 6.132911e-01 0.000000e+00 0.000000e+00
1
Step 524000
Ar 6.388768e-01 0.000000e+00 0.000000e+00
1
Step 525000
Ar 6.710718e-01 0.000000e+00 0.000000e+00
1
Step 526000
Ar 1.065983e+00 0.000000e+00 0.000000e+00
1
Step 527000
Ar 1.076175e+00 0.000000e+00 0.000000e+00
1
Step 528000
Ar 1.071198e+00 0.000000e+00 0.000000e+00
1
Step 529000
Ar 1.071710e+00 0.000000e+00 0.000000e+00
1
Step 530000
Ar 1.078249e+00 0.000000e+00 0.000000e+00
1
Step 531000
Ar 1.070442e+00 0.000000e+00 0.000000e+00
1
Step 532000
Ar 1.074819e+00 0.000000e+00 0.000000e+00
1
Step 533000
Ar 1.102853e+00 0.000000e+00 0.000000e+00
1
Step 534000
Ar 1.183389e+00 0.000000e+00 0.000000e+00
1
Step 535000
Ar 1.201161e+00 0.000000e+00 0.000000e+00
1
Step 536000
Ar 1.195635e+00 0.000000e+00 0.000000e+00
1
Step 537000
Ar 1.200645e+00 0.000000e+00 0.000000e+00
1
Step 538000
Ar 1.203508e+00 0.000000e+00 0.000000e+00
1
Step 539000
Ar 1.294322e+00 0.000000e+00 0.000000e+00
1
Step 540000
Ar 1.239731e+00 0.000000e+00 0.000000e+00
1
Step 541000
Ar 1.243227e+00 0.000000e+00 0.000000e+00
1
Step 542000
Ar 1.275491e+00 0.000000e+00 0.000000e+00
1
Step 543000
Ar 1.277712e+00 0.000000e+00 0.000000e+00
1
Step 544000
Ar 1.261282e+00 0.000000e+00 0.000000e+00
1
Step 545000
Ar 1.390051e+00 0.000000e+00 0.000000e+00
1
Step 546000
Ar 1.304548e+00 0.000000e+00 0.000000e+00
1
Step 547000
Ar 1.296310e+00 0.000000e+00 0.000000e+00
1
Step 548000
Ar 1.306038e+00 0.000000e+00 0.000000e+00
1
Step 549000
Ar 1.303798e+00 0.000000e+00 0.000000e+00
1
Step 550000
Ar 1.267279e+00 0.000000e+00 0.000000e+00
1
Step 551000
Ar 1.264937e+00 0.000000e+00 0.000000e+00
1
Step 552000
Ar 1.255508e+00 0.000000e+00 0.000000e+00
1
Step 553000
Ar 1.261564e+00 0.000000e+00 0.000000e+00
1
Step 554000
Ar 1.250534e+00 0.000000e+00 0.000000e+00
1
Step 555000
Ar 1.269693e+00 0.000000e+00 0.000000e+00
1
Step 556000
Ar 1.254584e+00 0.000000e+00 0.000000e+00
1
Step 557000
Ar 1.262675e+00 0.000000e+00 0.000000e+00
1
Step 558000
Ar 1.246819e+00 0.000000e+00 0.000000e+00
1
Step 559000
Ar 1.252807e+00 0.000000e+00 0.000000e+00
1
Step 560000
Ar 1.253308e+00 0.000000e+00 0.000000e+00
1
Step 561000
Ar 1.280428e+00 0.000000e+00 0.000000e+00
1
Step 562000
Ar 1.225707e+00 0.000000e+00 0.000000e+00
1
Step 563000
Ar 1.220556e+00 0.000000e+00 0.000000e+00
1
Step 564000
Ar 1.227683e+00 0.000000e+00 0.000000e+00
1
Step 565000
Ar 1.225256e+00 0.000000e+00 0.000000e+00
1
Step 566000
Ar 1.225501e+00 0.000000e+00 0.000000e+00
1
Step 567000
Ar 1.223189e+00 0.000000e+00 0.000000e+00
1
Step 568000
Ar 1.243087e+00 0.000000e+00 0.000000e+00
1
Step 569000
Ar 1.259244e+00 0.000000e+00 0.000000e+00
1
Step 570000
Ar 1.377176e+00 0.000000e+00 0.000000e+00
1
Step 571000
Ar 1.338699e+00 0.000000e+00 0.000000e+00
1
Step 572000
Ar 1.367884e+00 0.000000e+00 0.000000e+00
1
Step 573000
Ar 1.363496e+00 0.000000e+00 0.000000e+00
1
Step 574000
Ar 1.322819e+00 0.000000e+00 0.000000e+00
1
Step 575000
Ar 1.371409e+00 0.000000e+00 0.000000e+00
1
Step 576000
Ar 1.392580e+00 0.000000e+00 0.000000e+00
1
Step 577000
Ar 1.409903e+00 0.000000e+00 0.000000e+00
1
Step 578000
Ar 1.383584e+00 0.000000e+00 0.000000e+00
1
Step 579000
Ar 1.398474e+00 0.000000e+00 0.000000e+00
1
Step 580000
Ar 1.431902e+00 0.000000e+00 0.000000e+00
1
Step 581000
Ar 1.394933e+00 0.000000e+00 0.000000e+00
1
Step 582000
Ar 1.387120e+00 0.000000e+00 0.000000e+00
1
Step 583000
Ar 1.377643e+00 0.000000e+00 0.000000e+00
1
Step 584000
Ar 1.349194e+00 0.000000e+00 0.000000e+00
1
Step 585000
Ar 1.346255e+00 0.000000e+00 0.000000e+00
1
Step 586000
Ar 1.346438e+00 0.000000e+00 0.000000e+00
1
Step 587000
Ar 1.226140e+00 0.000000e+00 0.000000e+00
1
Step 588000
Ar 1.225338e+00 0.000000e+00 0.000000e+00
1
Step 589000
Ar 1.222845e+00 0.000000e+00 0.000000e+00
1
Step 590000
Ar 1.168646e+00 0.000000e+00 0.000000e+00
1
Step 591000
Ar 1.162376e+00 0.000000e+00 0.000000e+00
1
Step 592000
Ar 1.157806e+00 0.000000e+00 0.000000e+00
1
Step 593000
Ar 1.171140e+00 0.000000e+00 0.000000e+00
1
Step 594000
Ar 1.167286e+00 0.000000e+00 0.000000e+00
1
Step 595000
Ar 1.171392e+00 0.000000e+00 0.000000e+00
1
Step 596000
Ar 1.133742e+00 0.000000e+00 0.000000e+00
1
Step 597000
Ar 1.129931e+00 0.000000e+00 0.000000e+00
1
Step 598000
Ar 1.129831e+00 0.000000e+00 0.000000e+00
1
Step 599000
Ar 1.127087e+00 0.000000e+00 0.000000e+00
1
Step 600000
Ar 1.129645e+00 0.000000e+00 0.000000e+00
1
Step 601000
Ar 1.137612e+00 0.000000e+00 0.000000e+00
1
Step 602000
Ar 1.157254e+00 0.000000e+00 0.000000e+00
1
Step 603000
Ar 1.160196e+00 0.000000e+00 0.000000e+00
1
Step 604000
Ar 1.158044e+00 0.000000e+00 0.000000e+00
1
Step 605000
Ar 1.157471e+00 0.000000e+00 0.000000e+00
1
Step 606000
Ar 1.154838e+00 0.000000e+00 0.000000e+00
1
Step 607000
Ar 1.290608e+00 0.000000e+00 0.000000e+00
1
Step 608000
Ar 1.419340e+00 0.000000e+00 0.000000e+00
1
Step 609000
Ar 1.418895e+00 0.000000e+00 0.000000e+00
1
Step 610000
Ar 1.415933e+00 0.000000e+00 0.000000e+00
1
Step 611000
Ar 1.135484e+00 0.000000e+00 0.000000e+00
1
Step 612000
Ar 1.218023e+00 0.000000e+00 0.000000e+00
1
Step 613000
Ar 1.179880e+00 0.000000e+00 0.000000e+00
1
Step 614000
Ar 1.535329e+00 0.000000e+00 0.000000e+00
1
Step 615000
Ar 1.480994e+00 0.000000e+00 0.000000e+00
1
Step 616000
Ar 1.454601e+00 0.000000e+00 0.000000e+00
1
Step 617000
Ar 1.543015e+00 0.000000e+00 0.000000e+00
1
Step 618000
Ar 1.482808e+00 0.000000e+00 0.000000e+00
1
Step 619000
Ar 1.260270e+00 0.000000e+00 0.000000e+00
1
Step 620000
Ar 1.320484e+00 0.000000e+00 0.000000e+00
1
Step 621000
Ar 1.320002e+00 0.000000e+00 0.000000e+00
1
Step 622000
Ar -1.219093e+00 0.000000e+00 0.000000e+00
1
Step 623000
Ar -1.216905e+00 0.000000e+00 0.000000e+00
1
Step 624000
Ar -1.210705e+00 0.000000e+00 0.000000e+00
1
Step 625000
Ar -1.218651e+00 0.000000e+00 0.000000e+00
1
Step 626000
Ar -1.213412e+00 0.000000e+00 0.000000e+00
1
Step 627000
Ar -1.229360e+00 0.000000e+00 0.000000e+00
1
Step 628000
Ar -1.224340e+00 0.000000e+00 0.000000e+00
1
Step 629000
Ar -1.214922e+00 0.000000e+00 0.000000e+00
1
Step 630000
Ar -1.205098e+00 0.000000e+00 0.000000e+00
1
Step 631000
Ar -1.196523e+00 0.000000e+00 0.000000e+00
1
Step 632000
Ar -1.233204e+00 0.000000e+00 0.000000e+00
1
Step 633000
Ar -1.016473e+00 0.000000e+00 0.000000e+00
1
Step 634000
Ar -1.151486e+00 0.000000e+00 0.000000e+00
1
Step 635000
Ar -1.006619e+00 0.000000e+00 0.000000e+00
1
Step 636000
Ar -1.096101e+00 0.000000e+00 0.000000e+00
1
Step 637000
Ar -1.094024e+00 0.000000e+00 0.000000e+00
1
Step 638000
Ar -1.067578e+00 0.000000e+00 0.000000e+00
1
Step 639000
Ar -1.099006e+00 0.000000e+00 0.000000e+00
1
Step 640000
Ar -9.965258e-01 0.000000e+00 0.000000e+00
1
Step 641000
Ar -1.030175e+00 0.000000e+00 0.000000e+00
1
Step 642000
Ar -1.116892e+00 0.000000e+00 0.000000e+00
1
Step 643000
Ar -1.075269e+00 0.000000e+00 0.000000e+00
1
Step 644000
Ar -1.087808e+00 0.000000e+00 0.000000e+00
1
Step 645000
Ar -1.084558e+00 0.000000e+00 0.000000e+00
1
Step 646000
Ar -1.126930e+00 0.000000e+00 0.000000e+00
1
Step 647000
Ar -1.122370e+00 0.000000e+00 0.000000e+00
1
Step 648000
Ar -1.054767e+00 0.000000e+00 0.000000e+00
1
Step 649000
Ar -1.166198e+00 0.000000e+00 0.000000e+00
1
Step 650000
Ar -1.118216e+00 0.000000e+00 0.000000e+00
1
Step 651000