1
Step 120000
Ar 1.281065e+00 0.000000e+00 0.000000e+00
1
Step 121000
Ar 7.948398e-01 0.000000e+00 0.000000e+00
1
Step 122000
Ar 8.254188e-01 0.000000e+00 0.000000e+00
1
Step 123000
Ar 1.017753e+00 0.000000e+00 0.000000e+00
1
Step 124000
Ar 8.945540e-01 0.000000e+00 0.000000e+00
1
Step 125000
Ar 1.058444e+00 0.000000e+00 0.000000e+00
1
Step 126000
Ar 1.110792e+00 0.000000e+00 0.000000e+00
1
Step 127000
Ar 1.120038e+00 0.000000e+00 0.000000e+00
1
Step 128000
Ar 1.144602e+00 0.000000e+00 0.000000e+00
1
Step 129000
Ar 1.155136e+00 0.000000e+00 0.000000e+00
1
Step 130000
Ar 1.139902e+00 0.000000e+00 0.000000e+00
1
Step 131000
Ar 1.279112e+00 0.000000e+00 0.000000e+00
1
Step 132000
Ar 1.150197e+00 0.000000e+00 0.000000e+00
1
Step 133000
Ar 1.225002e+00 0.000000e+00 0.000000e+00
1
Step 134000
Ar 1.220459e+00 0.000000e+00 0.000000e+00
1
Step 135000
Ar 1.181069e+00 0.000000e+00 0.000000e+00
1
Step 136000
Ar 1.100439e+00 0.000000e+00 0.000000e+00
1
Step 137000
Ar 1.116914e+00 0.000000e+00 0.000000e+00
1
Step 138000
Ar 1.081596e+00 0.000000e+00 0.000000e+00
1
Step 139000
Ar 1.110130e+00 0.000000e+00 0.000000e+00
1
Step 140000
Ar 1.113389e+00 0.000000e+00 0.000000e+00
1
Step 141000
Ar 1.128458e+00 0.000000e+00 0.000000e+00
1
Step 142000
Ar 1.130332e+00 0.000000e+00 0.000000e+00
1
Step 143000
Ar 1.079829e+00 0.000000e+00 0.000000e+00
1
Step 144000
Ar 1.070894e+00 0.000000e+00 0.000000e+00
1
Step 145000
Ar 1.079854e+00 0.000000e+00 0.000000e+00
1
Step 146000
Ar 1.157859e+00 0.000000e+00 0.000000e+00
1
Step 147000
Ar 1.166703e+00 0.000000e+00 0.000000e+00
1
Step 148000
Ar 1.170162e+00 0.000000e+00 0.000000e+00
1
Step 149000
Ar 1.166173e+00 0.000000e+00 0.000000e+00
1
Step 150000
Ar 1.162222e+00 0.000000e+00 0.000000e+00
1
Step 151000
Ar 1.238878e+00 0.000000e+00 0.000000e+00
1
Step 152000
Ar 1.260916e+00 0.000000e+00 0.000000e+00
1
Step 153000
Ar 1.204239e+00 0.000000e+00 0.000000e+00
1
Step 154000
Ar 1.248294e+00 0.000000e+00 0.000000e+00
1
Step 155000
Ar 1.239738e+00 0.000000e+00 0.000000e+00
1
Step 156000
Ar 1.129178e+00 0.000000e+00 0.000000e+00
1
Step 157000
Ar 1.125764e+00 0.000000e+00 0.000000e+00
1
Step 158000
Ar 1.125897e+00 0.000000e+00 0.000000e+00
1
Step 159000
Ar 1.129211e+00 0.000000e+00 0.000000e+00
1
Step 160000
Ar 1.124680e+00 0.000000e+00 0.000000e+00
1
Step 161000
Ar 1.218885e+00 0.000000e+00 0.000000e+00
1
Step 162000
Ar 1.208139e+00 0.000000e+00 0.000000e+00
1
Step 163000
Ar 1.214519e+00 0.000000e+00 0.000000e+00
1
Step 164000
Ar 1.198751e+00 0.000000e+00 0.000000e+00
1
Step 165000
Ar 1.195724e+00 0.000000e+00 0.000000e+00
1
Step 166000
Ar 1.222231e+00 0.000000e+00 0.000000e+00
1
Step 167000
Ar 1.226399e+00 0.000000e+00 0.000000e+00
1
Step 168000
Ar 1.214707e+00 0.000000e+00 0.000000e+00
1
Step 169000
Ar 1.226508e+00 0.000000e+00 0.000000e+00
1
Step 170000
Ar 1.223787e+00 0.000000e+00 0.000000e+00
1
Step 171000
Ar 1.288273e+00 0.000000e+00 0.000000e+00
1
Step 172000
Ar 1.264908e+00 0.000000e+00 0.000000e+00
1
Step 173000
Ar 1.258716e+00 0.000000e+00 0.000000e+00
1
Step 174000
Ar 1.258868e+00 0.000000e+00 0.000000e+00
1
Step 175000
Ar 1.260905e+00 0.000000e+00 0.000000e+00
1
Step 176000
Ar 1.152653e+00 0.000000e+00 0.000000e+00
1
Step 177000
Ar 1.152229e+00 0.000000e+00 0.000000e+00
1
Step 178000
Ar 1.148691e+00 0.000000e+00 0.000000e+00
1
Step 179000
Ar 1.151905e+00 0.000000e+00 0.000000e+00
1
Step 180000
Ar 1.148689e+00 0.000000e+00 0.000000e+00
1
Step 181000
Ar 1.278617e+00 0.000000e+00 0.000000e+00
1
Step 182000
Ar 1.319229e+00 0.000000e+00 0.000000e+00
1
Step 183000
Ar 1.280517e+00 0.000000e+00 0.000000e+00
1
Step 184000
Ar 1.283443e+00 0.000000e+00 0.000000e+00
1
Step 185000
Ar 1.295961e+00 0.000000e+00 0.000000e+00
1
Step 186000
Ar 1.312957e+00 0.000000e+00 0.000000e+00
1
Step 187000
Ar 1.313852e+00 0.000000e+00 0.000000e+00
1
Step 188000
Ar 1.325463e+00 0.000000e+00 0.000000e+00
1
Step 189000
Ar 1.341817e+00 0.000000e+00 0.000000e+00
1
Step 190000
Ar 1.307765e+00 0.000000e+00 0.000000e+00
1
Step 191000
Ar 1.318769e+00 0.000000e+00 0.000000e+00
1
Step 192000
Ar 1.342917e+00 0.000000e+00 0.000000e+00
1
Step 193000
Ar 1.330110e+00 0.000000e+00 0.000000e+00
1
Step 194000
Ar 1.332043e+00 0.000000e+00 0.000000e+00
1
Step 195000
Ar 1.343169e+00 0.000000e+00 0.000000e+00
1
Step 196000
Ar 9.774521e-01 0.000000e+00 0.000000e+00
1
Step 197000
Ar 1.029458e+00 0.000000e+00 0.000000e+00
1
Step 198000
Ar 7.833892e-01 0.000000e+00 0.000000e+00
1
Step 199000
Ar 9.577718e-01 0.000000e+00 0.000000e+00
1
Step 200000
Ar 7.982002e-01 0.000000e+00 0.000000e+00
1
Step 201000
Ar 9.574890e-01 0.000000e+00 0.000000e+00
1
Step 202000
Ar 1.032267e+00 0.000000e+00 0.000000e+00
1
Step 203000
Ar 9.043122e-01 0.000000e+00 0.000000e+00
1
Step 204000
Ar 9.796360e-01 0.000000e+00 0.000000e+00
1
Step 205000
Ar 8.537845e-01 0.000000e+00 0.000000e+00
1
Step 206000
Ar 8.400899e-01 0.000000e+00 0.000000e+00
1
Step 207000
Ar 8.434307e-01 0.000000e+00 0.000000e+00
1
Step 208000
Ar 8.302629e-01 0.000000e+00 0.000000e+00
1
Step 209000
Ar 8.415977e-01 0.000000e+00 0.000000e+00
1
Step 210000
Ar 8.402989e-01 0.000000e+00 0.000000e+00
1
Step 211000
Ar 8.233379e-01 0.000000e+00 0.000000e+00
1
Step 212000
Ar 8.208662e-01 0.000000e+00 0.000000e+00
1
Step 213000
Ar 8.270767e-01 0.000000e+00 0.000000e+00
1
Step 214000
Ar 8.124327e-01 0.000000e+00 0.000000e+00
1
Step 215000
Ar 8.174823e-01 0.000000e+00 0.000000e+00
1
Step 216000
Ar 8.255026e-01 0.000000e+00 0.000000e+00
1
Step 217000
Ar 8.302659e-01 0.000000e+00 0.000000e+00
1
Step 218000
Ar 8.290049e-01 0.000000e+00 0.000000e+00
1
Step 219000
Ar 8.338710e-01 0.000000e+00 0.000000e+00
1
Step 220000
Ar 8.294795e-01 0.000000e+00 0.000000e+00
1
Step 221000
Ar 9.369954e-01 0.000000e+00 0.000000e+00
1
Step 222000
Ar 9.109103e-01 0.000000e+00 0.000000e+00
1
Step 223000
Ar 9.235326e-01 0.000000e+00 0.000000e+00
1
Step 224000
Ar 9.859922e-01 0.000000e+00 0.000000e+00
1
Step 225000
Ar 9.493643e-01 0.000000e+00 0.000000e+00
1
Step 226000
Ar 9.115758e-01 0.000000e+00 0.000000e+00
1
Step 227000
Ar 8.987047e-01 0.000000e+00 0.000000e+00
1
Step 228000
Ar 8.852271e-01 0.000000e+00 0.000000e+00
1
Step 229000
Ar 9.164664e-01 0.000000e+00 0.000000e+00
1
Step 230000
Ar 9.016457e-01 0.000000e+00 0.000000e+00
1
Step 231000
Ar 8.660307e-01 0.000000e+00 0.000000e+00
1
Step 232000
Ar 8.667209e-01 0.000000e+00 0.000000e+00
1
Step 233000
Ar 8.842060e-01 0.000000e+00 0.000000e+00
1
Step 234000
Ar 8.729112e-01 0.000000e+00 0.000000e+00
1
Step 235000
Ar 8.745879e-01 0.000000e+00 0.000000e+00
1
Step 236000
Ar 9.350906e-01 0.000000e+00 0.000000e+00
1
Step 237000
Ar 9.237780e-01 0.000000e+00 0.000000e+00
1
Step 238000
Ar 9.305103e-01 0.000000e+00 0.000000e+00
1
Step 239000
Ar 9.360086e-01 0.000000e+00 0.000000e+00
1
Step 240000
Ar 9.330989e-01 0.000000e+00 0.000000e+00
1
Step 241000
Ar 9.876905e-01 0.000000e+00 0.000000e+00
1
Step 242000
Ar 1.008179e+00 0.000000e+00 0.000000e+00
1
Step 243000
Ar 1.011328e+00 0.000000e+00 0.000000e+00
1
Step 244000
Ar 9.727289e-01 0.000000e+00 0.000000e+00
1
Step 245000
Ar 1.030097e+00 0.000000e+00 0.000000e+00
1
Step 246000
Ar 1.042641e+00 0.000000e+00 0.000000e+00
1
Step 247000
Ar 1.042364e+00 0.000000e+00 0.000000e+00
1
Step 248000
Ar 1.048426e+00 0.000000e+00 0.000000e+00
1
Step 249000
Ar 1.041924e+00 0.000000e+00 0.000000e+00
1
Step 250000
Ar 1.043553e+00 0.000000e+00 0.000000e+00
1
Step 251000
Ar 1.012344e+00 0.000000e+00 0.000000e+00
1
Step 252000
Ar 9.639682e-01 0.000000e+00 0.000000e+00
1
Step 253000
Ar 9.897086e-01 0.000000e+00 0.000000e+00
1
Step 254000
Ar 9.722138e-01 0.000000e+00 0.000000e+00
1
Step 255000
Ar 9.965607e-01 0.000000e+00 0.000000e+00
1
Step 256000
Ar 9.241525e-01 0.000000e+00 0.000000e+00
1
Step 257000
Ar 9.209976e-01 0.000000e+00 0.000000e+00
1
Step 258000
Ar 9.101101e-01 0.000000e+00 0.000000e+00
1
Step 259000
Ar 9.196217e-01 0.000000e+00 0.000000e+00
1
Step 260000
Ar 9.192637e-01 0.000000e+00 0.000000e+00
1
Step 261000
Ar 8.864156e-01 0.000000e+00 0.000000e+00
1
Step 262000
Ar 8.903371e-01 0.000000e+00 0.000000e+00
1
Step 263000
Ar 8.832081e-01 0.000000e+00 0.000000e+00
1
Step 264000
Ar 8.904635e-01 0.000000e+00 0.000000e+00
1
Step 265000
Ar 8.914224e-01 0.000000e+00 0.000000e+00
1
Step 266000
Ar 7.869576e-01 0.000000e+00 0.000000e+00
1
Step 267000
Ar 7.510581e-01 0.000000e+00 0.000000e+00
1
Step 268000
Ar 7.018366e-01 0.000000e+00 0.000000e+00
1
Step 269000
Ar 5.834750e-01 0.000000e+00 0.000000e+00
1
Step 270000
Ar 7.781338e-01 0.000000e+00 0.000000e+00
1
Step 271000
Ar 7.218281e-01 0.000000e+00 0.000000e+00
1
Step 272000
Ar 7.339840e-01 0.000000e+00 0.000000e+00
1
Step 273000
Ar 6.292738e-01 0.000000e+00 0.000000e+00
1
Step 274000
Ar 7.474110e-01 0.000000e+00 0.000000e+00
1
Step 275000
Ar 7.646944e-01 0.000000e+00 0.000000e+00
1
Step 276000
Ar 7.187062e-01 0.000000e+00 0.000000e+00
1
Step 277000
Ar 7.315110e-01 0.000000e+00 0.000000e+00
1
Step 278000
Ar 5.887054e-01 0.000000e+00 0.000000e+00
1
Step 279000
Ar 5.614998e-01 0.000000e+00 0.000000e+00
1
Step 280000
Ar 6.918437e-01 0.000000e+00 0.000000e+00
1
Step 281000
Ar 5.628336e-01 0.000000e+00 0.000000e+00
1
Step 282000
Ar 6.396203e-01 0.000000e+00 0.000000e+00
1
Step 283000
Ar 6.691065e-01 0.000000e+00 0.000000e+00
1
Step 284000
Ar 6.663857e-01 0.000000e+00 0.000000e+00
1
Step 285000
Ar 6.535009e-01 0.000000e+00 0.000000e+00
1
Step 286000
Ar 6.783566e-01 0.000000e+00 0.000000e+00
1
Step 287000
Ar 6.735035e-01 0.000000e+00 0.000000e+00
1
Step 288000
Ar 6.679735e-01 0.000000e+00 0.000000e+00
1
Step 289000
Ar 6.719388e-01 0.000000e+00 0.000000e+00
1
Step 290000
Ar 6.713516e-01 0.000000e+00 0.000000e+00
1
Step 291000
Ar 7.203454e-01 0.000000e+00 0.000000e+00
1
Step 292000
Ar 7.469075e-01 0.000000e+00 0.000000e+00
1
Step 293000
Ar 7.429096e-01 0.000000e+00 0.000000e+00
1
Step 294000
Ar 7.350667e-01 0.000000e+00 0.000000e+00
1
Step 295000
Ar 7.478323e-01 0.000000e+00 0.000000e+00
1
Step 296000
Ar 7.246587e-01 0.000000e+00 0.000000e+00
1
Step 297000
Ar 7.184562e-01 0.000000e+00 0.000000e+00
1
Step 298000
Ar 7.231257e-01 0.000000e+00 0.000000e+00
1
Step 299000
Ar 7.242042e-01 0.000000e+00 0.000000e+00
1
Step 300000
Ar 7.165185e-01 0.000000e+00 0.000000e+00
1
Step 301000
Ar 7.049693e-01 0.000000e+00 0.000000e+00
1
Step 302000
Ar 7.025273e-01 0.000000e+00 0.000000e+00
1
Step 303000
Ar 7.036630e-01 0.000000e+00 0.000000e+00
1
Step 304000
Ar 7.054787e-01 0.000000e+00 0.000000e+00
1
Step 305000
Ar 7.005237e-01 0.000000e+00 0.000000e+00
1
Step 306000
Ar 1.071396e+00 0.000000e+00 0.000000e+00
1
Step 307000
Ar 1.070533e+00 0.000000e+00 0.000000e+00
1
Step 308000
Ar 1.069740e+00 0.000000e+00 0.000000e+00
1
Step 309000
Ar 1.068514e+00 0.000000e+00 0.000000e+00
1
Step 310000
Ar 1.068117e+00 0.000000e+00 0.000000e+00
1
Step 311000
Ar 1.095512e+00 0.000000e+00 0.000000e+00
1
Step 312000
Ar 1.096916e+00 0.000000e+00 0.000000e+00
1
Step 313000
Ar 1.103045e+00 0.000000e+00 0.000000e+00
1
Step 314000
Ar 1.099854e+00 0.000000e+00 0.000000e+00
1
Step 315000
Ar 1.086145e+00 0.000000e+00 0.000000e+00
1
Step 316000
Ar 1.099520e+00 0.000000e+00 0.000000e+00
1
Step 317000
Ar 1.099462e+00 0.000000e+00 0.000000e+00
1
Step 318000
Ar 1.096852e+00 0.000000e+00 0.000000e+00
1
Step 319000
Ar 1.102894e+00 0.000000e+00 0.000000e+00
1
Step 320000
Ar 1.099246e+00 0.000000e+00 0.000000e+00
1
Step 321000
Ar 1.123462e+00 0.000000e+00 0.000000e+00
1
Step 322000
Ar 1.326245e+00 0.000000e+00 0.000000e+00
1
Step 323000
Ar 1.325465e+00 0.000000e+00 0.000000e+00
1
Step 324000
Ar 1.323919e+00 0.000000e+00 0.000000e+00
1
Step 325000
Ar 1.335626e+00 0.000000e+00 0.000000e+00
1
Step 326000
Ar 1.230094e+00 0.000000e+00 0.000000e+00
1
Step 327000
Ar 1.175795e+00 0.000000e+00 0.000000e+00
1
Step 328000
Ar 1.210006e+00 0.000000e+00 0.000000e+00
1
Step 329000
Ar 1.209097e+00 0.000000e+00 0.000000e+00
1
Step 330000
Ar 1.207740e+00 0.000000e+00 0.000000e+00
1
Step 331000
Ar 1.249260e+00 0.000000e+00 0.000000e+00
1
Step 332000
Ar 1.250184e+00 0.000000e+00 0.000000e+00
1
Step 333000
Ar 1.248993e+00 0.000000e+00 0.000000e+00
1
Step 334000
Ar 1.250292e+00 0.000000e+00 0.000000e+00
1
Step 335000
Ar 1.247177e+00 0.000000e+00 0.000000e+00
1
Step 336000
Ar 1.327002e+00 0.000000e+00 0.000000e+00
1
Step 337000
Ar 1.323661e+00 0.000000e+00 0.000000e+00
1
Step 338000
Ar 1.316658e+00 0.000000e+00 0.000000e+00
1
Step 339000
Ar 1.324310e+00 0.000000e+00 0.000000e+00
1
Step 340000
Ar 1.323657e+00 0.000000e+00 0.000000e+00
1
Step 341000
Ar 1.284850e+00 0.000000e+00 0.000000e+00
1
Step 342000
Ar 1.281672e+00 0.000000e+00 0.000000e+00
1
Step 343000
Ar 1.277803e+00 0.000000e+00 0.000000e+00
1
Step 344000
Ar 1.272610e+00 0.000000e+00 0.000000e+00
1
Step 345000
Ar 1.281601e+00 0.000000e+00 0.000000e+00
1
Step 346000
Ar 1.271852e+00 0.000000e+00 0.000000e+00
1
Step 347000
Ar 1.270520e+00 0.000000e+00 0.000000e+00
1
Step 348000
Ar 1.312322e+00 0.000000e+00 0.000000e+00
1
Step 349000
Ar 1.271613e+00 0.000000e+00 0.000000e+00
1
Step 350000
Ar 1.269136e+00 0.000000e+00 0.000000e+00
1
Step 351000
Ar 1.286065e+00 0.000000e+00 0.000000e+00
1
Step 352000
Ar 1.102686e+00 0.000000e+00 0.000000e+00
1
Step 353000
Ar 9.892783e-01 0.000000e+00 0.000000e+00
1
Step 354000
Ar 9.687220e-01 0.000000e+00 0.000000e+00
1
Step 355000
Ar 9.645883e-01 0.000000e+00 0.000000e+00
1
Step 356000
Ar 9.868231e-01 0.000000e+00 0.000000e+00
1
Step 357000
Ar 9.833486e-01 0.000000e+00 0.000000e+00
1
Step 358000
Ar 9.756199e-01 0.000000e+00 0.000000e+00
1
Step 359000
Ar 9.769133e-01 0.000000e+00 0.000000e+00
1
Step 360000
Ar 9.822419e-01 0.000000e+00 0.000000e+00
1
Step 361000
Ar 9.744822e-01 0.000000e+00 0.000000e+00
1
Step 362000
Ar 9.737668e-01 0.000000e+00 0.000000e+00
1
Step 363000
Ar 9.702828e-01 0.000000e+00 0.000000e+00
1
Step 364000
Ar 9.714977e-01 0.000000e+00 0.000000e+00
1
Step 365000
Ar 9.348375e-01 0.000000e+00 0.000000e+00
1
Step 366000
Ar 1.352849e+00 0.000000e+00 0.000000e+00
1
Step 367000
Ar 1.355608e+00 0.000000e+00 0.000000e+00
1
Step 368000
Ar 1.363291e+00 0.000000e+00 0.000000e+00
1
Step 369000
Ar 1.366202e+00 0.000000e+00 0.000000e+00
1
Step 370000
Ar 1.360553e+00 0.000000e+00 0.000000e+00
1
Step 371000
Ar 1.423400e+00 0.000000e+00 0.000000e+00
1
Step 372000
Ar 1.384843e+00 0.000000e+00 0.000000e+00
1
Step 373000
Ar 1.380257e+00 0.000000e+00 0.000000e+00
1
Step 374000
Ar 1.372350e+00 0.000000e+00 0.000000e+00
1
Step 375000
Ar 1.393147e+00 0.000000e+00 0.000000e+00
1
Step 376000
Ar 1.415711e+00 0.000000e+00 0.000000e+00
1
Step 377000
Ar 1.405346e+00 0.000000e+00 0.000000e+00
1
Step 378000
Ar 1.439245e+00 0.000000e+00 0.000000e+00
1
Step 379000
Ar 1.465044e+00 0.000000e+00 0.000000e+00
1
Step 380000
Ar 1.407512e+00 0.000000e+00 0.000000e+00
1
Step 381000
Ar 1.421910e+00 0.000000e+00 0.000000e+00
1
Step 382000
Ar 1.426219e+00 0.000000e+00 0.000000e+00
1
Step 383000
Ar 1.426283e+00 0.000000e+00 0.000000e+00
1
Step 384000
Ar 1.449918e+00 0.000000e+00 0.000000e+00
1
Step 385000
Ar 1.451541e+00 0.000000e+00 0.000000e+00
1
Step 386000
Ar 1.463196e+00 0.000000e+00 0.000000e+00
1
Step 387000
Ar 1.462146e+00 0.000000e+00 0.000000e+00
1
Step 388000
Ar 1.465910e+00 0.000000e+00 0.000000e+00
1
Step 389000
Ar 1.485143e+00 0.000000e+00 0.000000e+00
1
Step 390000
Ar 1.495727e+00 0.000000e+00 0.000000e+00
1
Step 391000
Ar 1.521217e+00 0.000000e+00 0.000000e+00
1
Step 392000
Ar 1.520113e+00 0.000000e+00 0.000000e+00
1
Step 393000
Ar 1.510056e+00 0.000000e+00 0.000000e+00
1
Step 394000
Ar 1.518112e+00 0.000000e+00 0.000000e+00
1
Step 395000
Ar 1.512105e+00 0.000000e+00 0.000000e+00
1
Step 396000
Ar 1.479645e+00 0.000000e+00 0.000000e+00
1
Step 397000
Ar 1.463297e+00 0.000000e+00 0.000000e+00
1
Step 398000
Ar 1.468232e+00 0.000000e+00 0.000000e+00
1
Step 399000
Ar 1.463273e+00 0.000000e+00 0.000000e+00
1
Step 400000
Ar 1.484086e+00 0.000000e+00 0.000000e+00
1
Step 401000
Ar 5.264428e-01 0.000000e+00 0.000000e+00
1
Step 402000
Ar 6.161813e-01 0.000000e+00 0.000000e+00
1
Step 403000
Ar 5.960029e-01 0.000000e+00 0.000000e+00
1
Step 404000
Ar 6.276004e-01 0.000000e+00 0.000000e+00
1
Step 405000
Ar 5.208603e-01 0.000000e+00 0.000000e+00
1
Step 406000
Ar 4.728059e-01 0.000000e+00 0.000000e+00
1
Step 407000
Ar -4.134964e-02 0.000000e+00 0.000000e+00
1
Step 408000
Ar 4.758806e-01 0.000000e+00 0.000000e+00
1
Step 409000
Ar 4.766719e-01 0.000000e+00 0.000000e+00
1
Step 410000
Ar 5.066437e-01 0.000000e+00 0.000000e+00
1
Step 411000
Ar -9.666738e-01 0.000000e+00 0.000000e+00
1
Step 412000
Ar -1.131787e+00 0.000000e+00 0.000000e+00
1
Step 413000
Ar -1.035114e+00 0.000000e+00 0.000000e+00
1
Step 414000
Ar -9.396479e-01 0.000000e+00 0.000000e+00
1
Step 415000
Ar -1.070880e+00 0.000000e+00 0.000000e+00
1
Step 416000
Ar -9.394100e-01 0.000000e+00 0.000000e+00
1
Step 417000
Ar -8.508661e-01 0.000000e+00 0.000000e+00
1
Step 418000
Ar -8.830924e-01 0.000000e+00 0.000000e+00
1
Step 419000
Ar -1.005821e+00 0.000000e+00 0.000000e+00
1
Step 420000
Ar -1.017546e+00 0.000000e+00 0.000000e+00
1
Step 421000
Ar -1.039710e+00 0.000000e+00 0.000000e+00
1
Step 422000
Ar -1.053168e+00 0.000000e+00 0.000000e+00
1
Step 423000
Ar -1.036700e+00 0.000000e+00 0.000000e+00
1
Step 424000
Ar -1.032483e+00 0.000000e+00 0.000000e+00
1
Step 425000
Ar -1.051205e+00 0.000000e+00 0.000000e+00
1
Step 426000
Ar -1.030980e+00 0.000000e+00 0.000000e+00
1
Step 427000
Ar -1.037891e+00 0.000000e+00 0.000000e+00
1
Step 428000
Ar -1.039578e+00 0.000000e+00 0.000000e+00
1
Step 429000
Ar -1.030213e+00 0.000000e+00 0.000000e+00
1
Step 430000
Ar -1.030287e+00 0.000000e+00 0.000000e+00
1
Step 431000
Ar -9.573541e-01 0.000000e+00 0.000000e+00
1
Step 432000
Ar -9.909413e-01 0.000000e+00 0.000000e+00
1
Step 433000
Ar -9.284690e-01 0.000000e+00 0.000000e+00
1
Step 434000
Ar -9.446674e-01 0.000000e+00 0.000000e+00
1
Step 435000
Ar -9.023663e-01 0.000000e+00 0.000000e+00
1
Step 436000
Ar -9.720600e-01 0.000000e+00 0.000000e+00
1
Step 437000
Ar -9.767442e-01 0.000000e+00 0.000000e+00
1
Step 438000
Ar -9.598880e-01 0.000000e+00 0.000000e+00
1
Step 439000
Ar -9.605276e-01 0.000000e+00 0.000000e+00
1
Step 440000
Ar -1.003902e+00 0.000000e+00 0.000000e+00
1
Step 441000
Ar -9.358808e-01 0.000000e+00 0.000000e+00
1
Step 442000
Ar -9.758365e-01 0.000000e+00 0.000000e+00
1
Step 443000
Ar -9.763101e-01 0.000000e+00 0.000000e+00
1
Step 444000
Ar -9.437153e-01 0.000000e+00 0.000000e+00
1
Step 445000
Ar -9.732886e-01 0.000000e+00 0.000000e+00
1
Step 446000
Ar -8.606317e-01 0.000000e+00 0.000000e+00
1
Step 447000
Ar -7.825463e-01 0.000000e+00 0.000000e+00
1
Step 448000
Ar -8.821161e-01 0.000000e+00 0.000000e+00
1
Step 449000
Ar -8.597232e-01 0.000000e+00 0.000000e+00
1
Step 450000
Ar -8.830399e-01 0.000000e+00 0.000000e+00
1
Step 451000
Ar -1.042685e+00 0.000000e+00 0.000000e+00
1
Step 452000
Ar -1.038419e+00 0.000000e+00 0.000000e+00
1
Step 453000
Ar -1.041073e+00 0.000000e+00 0.000000e+00
1
Step 454000
Ar -1.109268e+00 0.000000e+00 0.000000e+00
1
Step 455000
Ar -1.125426e+00 0.000000e+00 0.000000e+00
1
Step 456000
Ar -9.547110e-01 0.000000e+00 0.000000e+00
1
Step 457000
Ar -9.614735e-01 0.000000e+00 0.000000e+00
1
Step 458000
Ar -9.489201e-01 0.000000e+00 0.000000e+00
1
Step 459000
Ar -9.391376e-01 0.000000e+00 0.000000e+00
1
Step 460000
Ar -9.163244e-01 0.000000e+00 0.000000e+00
1
Step 461000
Ar -9.335609e-01 0.000000e+00 0.000000e+00
1
Step 462000
Ar -9.495812e-01 0.000000e+00 0.000000e+00
1
Step 463000
Ar -9.480297e-01 0.000000e+00 0.000000e+00
1
Step 464000
Ar -9.485992e-01 0.000000e+00 0.000000e+00
1
Step 465000
Ar -9.367544e-01 0.000000e+00 0.000000e+00
1
Step 466000
Ar -6.923384e-01 0.000000e+00 0.000000e+00
1
Step 467000
Ar -8.510800e-01 0.000000e+00 0.000000e+00
1
Step 468000
Ar -7.607990e-01 0.000000e+00 0.000000e+00
1
Step 469000
Ar -8.550751e-01 0.000000e+00 0.000000e+00
1
Step 470000
Ar -8.689116e-01 0.000000e+00 0.000000e+00
1
Step 471000
Ar -7.694896e-01 0.000000e+00 0.000000e+00
1
Step 472000
Ar -8.581844e-01 0.000000e+00 0.000000e+00
1
Step 473000
Ar -7.951137e-01 0.000000e+00 0.000000e+00
1
Step 474000
Ar -8.443480e-01 0.000000e+00 0.000000e+00
1
Step 475000
Ar -8.051001e-01 0.000000e+00 0.000000e+00
1
Step 476000
Ar -8.515812e-01 0.000000e+00 0.000000e+00
1
Step 477000
Ar -8.310930e-01 0.000000e+00 0.000000e+00
1
Step 478000
Ar -8.436390e-01 0.000000e+00 0.000000e+00
1
Step 479000
Ar -8.557666e-01 0.000000e+00 0.000000e+00
1
Step 480000
Ar -8.354982e-01 0.000000e+00 0.000000e+00
1
Step 481000
Ar -8.543412e-01 0.000000e+00 0.000000e+00
1
Step 482000
Ar -8.504767e-01 0.000000e+00 0.000000e+00
1
Step 483000
Ar -8.576810e-01 0.000000e+00 0.000000e+00
1
Step 484000
Ar -8.438776e-01 0.000000e+00 0.000000e+00
1
Step 485000
Ar -8.534743e-01 0.000000e+00 0.000000e+00
1
Step 486000
Ar -7.133955e-01 0.000000e+00 0.000000e+00
1
Step 487000
Ar -7.787034e-01 0.000000e+00 0.000000e+00
1
Step 488000
Ar -7.396623e-01 0.000000e+00 0.000000e+00
1
Step 489000
Ar -7.485331e-01 0.000000e+00 0.000000e+00
1
Step 490000
Ar -7.750240e-01 0.000000e+00 0.000000e+00
1
Step 491000
Ar -6.309806e-01 0.000000e+00 0.000000e+00
1
Step 492000
Ar -7.533106e-01 0.000000e+00 0.000000e+00
1
Step 493000
Ar -7.156358e-01 0.000000e+00 0.000000e+00
1
Step 494000
Ar -7.090398e-01 0.000000e+00 0.000000e+00
1
Step 495000
Ar -7.086472e-01 0.000000e+00 0.000000e+00
1
Step 496000
Ar -6.904648e-01 0.000000e+00 0.000000e+00
1
Step 497000
Ar -5.860108e-01 0.000000e+00 0.000000e+00
1
Step 498000
Ar -5.366999e-01 0.000000e+00 0.000000e+00
1
Step 499000
Ar -6.776933e-01 0.000000e+00 0.000000e+00
1
Step 500000
Ar -5.992845e-01 0.000000e+00 0.000000e+00
1
Step 501000
Ar 4.799693e-01 0.000000e+00 0.000000e+00
1
Step 502000
Ar 4.845072e-01 0.000000e+00 0.000000e+00
1
Step 503000
Ar 4.567136e-01 0.000000e+00 0.000000e+00
1
Step 504000
Ar 4.487337e-01 0.000000e+00 0.000000e+00
1
Step 505000
Ar 4.740329e-01 0.000000e+00 0.000000e+00
1
Step 506000
Ar -5.802444e-01 0.000000e+00 0.000000e+00
1
Step 507000
Ar -4.929192e-01 0.000000e+00 0.000000e+00
1
Step 508000
Ar -5.450590e-01 0.000000e+00 0.000000e+00
1
Step 509000
Ar -5.550021e-01 0.000000e+00 0.000000e+00
1
Step 510000
Ar -5.039288e-01 0.000000e+00 0.000000e+00
1
Step 511000
Ar -4.864230e-01 0.000000e+00 0.000000e+00
1
Step 512000
Ar -4.923845e-01 0.000000e+00 0.000000e+00
1
Step 513000
Ar -4.709241e-01 0.000000e+00 0.000000e+00
1
Step 514000
Ar -4.733490e-01 0.000000e+00 0.000000e+00
1
Step 515000
Ar -4.250573e-01 0.000000e+00 0.000000e+00
1
Step 516000
Ar -3.421785e-01 0.000000e+00 0.000000e+00
1
Step 517000
Ar -3.644993e-01 0.000000e+00 0.000000e+00
1
Step 518000
Ar -4.118094e-01 0.000000e+00 0.000000e+00
1
Step 519000
Ar 3.726961e-01 0.000000e+00 0.000000e+00
1
Step 520000
Ar 3.706097e-01 0.000000e+00 0.000000e+00
1
Step 521000
Ar -3.031355e-01 0.000000e+00 0.000000e+00
1
Step 522000
Ar -8.024552e-02 0.000000e+00 0.000000e+00
1
Step 523000
Ar 1.960941e-01 0.000000e+00 0.000000e+00
1
Step 524000
Ar 3.588350e-01 0.000000e+00 0.000000e+00
1
Step 525000
Ar 3.453313e-01 0.000000e+00 0.000000e+00
1
Step 526000
Ar 4.195642e-01 0.000000e+00 0.000000e+00
1
Step 527000
Ar 3.924581e-01 0.000000e+00 0.000000e+00
1
Step 528000
Ar 4.370973e-01 0.000000e+00 0.000000e+00
1
Step 529000
Ar 4.364336e-01 0.000000e+00 0.000000e+00
1
Step 530000
Ar 4.315916e-01 0.000000e+00 0.000000e+00
1
Step 531000
Ar 4.083733e-01 0.000000e+00 0.000000e+00
1
Step 532000
Ar 4.056364e-01 0.000000e+00 0.000000e+00
1
Step 533000
Ar 4.019428e-01 0.000000e+00 0.000000e+00
1
Step 534000
Ar 4.134995e-01 0.000000e+00 0.000000e+00
1
Step 535000
Ar 4.036412e-01 0.000000e+00 0.000000e+00
1
Step 536000
Ar 6.833859e-01 0.000000e+00 0.000000e+00
1
Step 537000
Ar 6.806292e-01 0.000000e+00 0.000000e+00
1
Step 538000
Ar 6.819350e-01 0.000000e+00 0.000000e+00
1
Step 539000
Ar 6.798190e-01 0.000000e+00 0.000000e+00
1
Step 540000
Ar 6.841724e-01 0.000000e+00 0.000000e+00
1
Step 541000
Ar 6.360506e-01 0.000000e+00 0.000000e+00
1
Step 542000
Ar 5.474183e-01 0.000000e+00 0.000000e+00
1
Step 543000
Ar 5.802711e-01 0.000000e+00 0.000000e+00
1
Step 544000
Ar 6.375856e-01 0.000000e+00 0.000000e+00
1
Step 545000
Ar 5.792069e-01 0.000000e+00 0.000000e+00
1
Step 546000
Ar 6.638267e-01 0.000000e+00 0.000000e+00
1
Step 547000
Ar 6.642454e-01 0.000000e+00 0.000000e+00
1
Step 548000
Ar 6.627278e-01 0.000000e+00 0.000000e+00
1
Step 549000
Ar 6.011998e-01 0.000000e+00 0.000000e+00
1
Step 550000
Ar 6.173190e-01 0.000000e+00 0.000000e+00
1
Step 551000
Ar 5.394180e-01 0.000000e+00 0.000000e+00
1
Step 552000
Ar 5.394185e-01 0.000000e+00 0.000000e+00
1
Step 553000
Ar 5.571932e-01 0.000000e+00 0.000000e+00
1
Step 554000
Ar 5.647255e-01 0.000000e+00 0.000000e+00
1
Step 555000
Ar 5.361548e-01 0.000000e+00 0.000000e+00
1
Step 556000
Ar 4.463956e-01 0.000000e+00 0.000000e+00
1
Step 557000
Ar 4.496609e-01 0.000000e+00 0.000000e+00
1
Step 558000
Ar 4.401018e-01 0.000000e+00 0.000000e+00
1
Step 559000
Ar 4.597539e-01 0.000000e+00 0.000000e+00
1
Step 560000
Ar 4.559107e-01 0.000000e+00 0.000000e+00
1
Step 561000
Ar 4.456501e-01 0.000000e+00 0.000000e+00
1
Step 562000
Ar 4.435118e-01 0.000000e+00 0.000000e+00
1
Step 563000
Ar 4.450985e-01 0.000000e+00 0.000000e+00
1
Step 564000
Ar 4.384628e-01 0.000000e+00 0.000000e+00
1
Step 565000
Ar 6.373682e-01 0.000000e+00 0.000000e+00
1
Step 566000
Ar 5.944834e-01 0.000000e+00 0.000000e+00
1
Step 567000
Ar 6.030627e-01 0.000000e+00 0.000000e+00
1
Step 568000
Ar 5.951715e-01 0.000000e+00 0.000000e+00
1
Step 569000
Ar 6.074742e-01 0.000000e+00 0.000000e+00
1
Step 570000
Ar 5.969053e-01 0.000000e+00 0.000000e+00
1
Step 571000
Ar 6.072756e-01 0.000000e+00 0.000000e+00
1
Step 572000
Ar 6.108681e-01 0.000000e+00 0.000000e+00
1
Step 573000
Ar 6.060056e-01 0.000000e+00 0.000000e+00
1
Step 574000
Ar 6.085908e-01 0.000000e+00 0.000000e+00
1
Step 575000
Ar 6.037864e-01 0.000000e+00 0.000000e+00
1
Step 576000
Ar 7.367629e-01 0.000000e+00 0.000000e+00
1
Step 577000
Ar 7.330775e-01 0.000000e+00 0.000000e+00
1
Step 578000
Ar 7.311538e-01 0.000000e+00 0.000000e+00
1
Step 579000
Ar 7.351237e-01 0.000000e+00 0.000000e+00
1
Step 580000
Ar 7.339294e-01 0.000000e+00 0.000000e+00
1
Step 581000
Ar 1.290381e+00 0.000000e+00 0.000000e+00
1
Step 582000
Ar -7.415591e-01 0.000000e+00 0.000000e+00
1
Step 583000
Ar -1.139142e+00 0.000000e+00 0.000000e+00
1
Step 584000
Ar -1.192190e+00 0.000000e+00 0.000000e+00
1
Step 585000
Ar -1.155161e+00 0.000000e+00 0.000000e+00
1
Step 586000
Ar -1.169484e+00 0.000000e+00 0.000000e+00
1
Step 587000
Ar -1.181684e+00 0.000000e+00 0.000000e+00
1
Step 588000
Ar -1.262158e+00 0.000000e+00 0.000000e+00
1
Step 589000
Ar -1.241851e+00 0.000000e+00 0.000000e+00
1
Step 590000
Ar -1.184350e+00 0.000000e+00 0.000000e+00
1
Step 591000
Ar -1.202731e+00 0.000000e+00 0.000000e+00
1
Step 592000
Ar -1.216156e+00 0.000000e+00 0.000000e+00
1
Step 593000
Ar -1.207668e+00 0.000000e+00 0.000000e+00
1
Step 594000
Ar -1.246669e+00 0.000000e+00 0.000000e+00
1
Step 595000
Ar -1.209888e+00 0.000000e+00 0.000000e+00
1
Step 596000
Ar -1.267850e+00 0.000000e+00 0.000000e+00
1
Step 597000
Ar -1.235821e+00 0.000000e+00 0.000000e+00
1
Step 598000
Ar -1.232192e+00 0.000000e+00 0.000000e+00
1
Step 599000
Ar -1.287684e+00 0.000000e+00 0.000000e+00
1
Step 600000
Ar -1.262592e+00 0.000000e+00 0.000000e+00
1
Step 601000
Ar -1.331026e+00 0.000000e+00 0.000000e+00
1
Step 602000
Ar -1.297165e+00 0.000000e+00 0.000000e+00
1
Step 603000
Ar -1.371303e+00 0.000000e+00 0.000000e+00
1
Step 604000
Ar -1.402899e+00 0.000000e+00 0.000000e+00
1
Step 605000
Ar -1.318782e+00 0.000000e+00 0.000000e+00
1
Step 606000
Ar -1.281621e+00 0.000000e+00 0.000000e+00
1
Step 607000
Ar -1.301173e+00 0.000000e+00 0.000000e+00
1
Step 608000
Ar -1.300710e+00 0.000000e+00 0.000000e+00
1
Step 609000
Ar -1.302746e+00 0.000000e+00 0.000000e+00
1
Step 610000
Ar -1.291453e+00 0.000000e+00 0.000000e+00
1
Step 611000
Ar -9.558092e-01 0.000000e+00 0.000000e+00
1
Step 612000
Ar -9.591229e-01 0.000000e+00 0.000000e+00
1
Step 613000
Ar -9.497162e-01 0.000000e+00 0.000000e+00
1
Step 614000
Ar -9.576914e-01 0.000000e+00 0.000000e+00
1
Step 615000
Ar -9.500078e-01 0.000000e+00 0.000000e+00
1
Step 616000
Ar -7.872714e-01 0.000000e+00 0.000000e+00
1
Step 617000
Ar -7.853862e-01 0.000000e+00 0.000000e+00
1
Step 618000
Ar -7.948854e-01 0.000000e+00 0.000000e+00
1
Step 619000
Ar -7.950648e-01 0.000000e+00 0.000000e+00
1
Step 620000
Ar -7.861869e-01 0.000000e+00 0.000000e+00
1
Step 621000
Ar -8.178268e-01 0.000000e+00 0.000000e+00
1
Step 622000
Ar -8.163985e-01 0.000000e+00 0.000000e+00
1
Step 623000
Ar -8.231667e-01 0.000000e+00 0.000000e+00
1
Step 624000
Ar -8.185572e-01 0.000000e+00 0.000000e+00
1
Step 625000
Ar -8.225134e-01 0.000000e+00 0.000000e+00
1
Step 626000
Ar -7.426044e-01 0.000000e+00 0.000000e+00
1
Step 627000
Ar -7.273331e-01 0.000000e+00 0.000000e+00
1
Step 628000
Ar -7.334424e-01 0.000000e+00 0.000000e+00
1
Step 629000
Ar -7.432793e-01 0.000000e+00 0.000000e+00
1
Step 630000
Ar -7.495433e-01 0.000000e+00 0.000000e+00
1
Step 631000
Ar -7.342801e-01 0.000000e+00 0.000000e+00
1
Step 632000
Ar -7.349893e-01 0.000000e+00 0.000000e+00
1
Step 633000
Ar -7.437624e-01 0.000000e+00 0.000000e+00
1
Step 634000
Ar -7.295596e-01 0.000000e+00 0.000000e+00
1
Step 635000
Ar -7.318078e-01 0.000000e+00 0.000000e+00
1
Step 636000
Ar -7.186283e-01 0.000000e+00 0.000000e+00
1
Step 637000
Ar -7.212209e-01 0.000000e+00 0.000000e+00
1
Step 638000
Ar -7.211413e-01 0.000000e+00 0.000000e+00
1
Step 639000
Ar -7.210163e-01 0.000000e+00 0.000000e+00
1
Step 640000
Ar -7.201268e-01 0.000000e+00 0.000000e+00
1
Step 641000
Ar -6.386110e-01 0.000000e+00 0.000000e+00
1
Step 642000
Ar -6.694982e-01 0.000000e+00 0.000000e+00
1
Step 643000
Ar -6.990593e-01 0.000000e+00 0.000000e+00
1
Step 644000
Ar -6.270407e-01 0.000000e+00 0.000000e+00
1
Step 645000
Ar -6.541731e-01 0.000000e+00 0.000000e+00
1
Step 646000
Ar -6.860049e-01 0.000000e+00 0.000000e+00
1
Step 647000
Ar -6.887816e-01 0.000000e+00 0.000000e+00
1
Step 648000
Ar -6.825626e-01 0.000000e+00 0.000000e+00
1
Step 649000
Ar -6.771419e-01 0.000000e+00 0.000000e+00
1
Step 650000
Ar -6.861071e-01 0.000000e+00 0.000000e+00
1
Step 651000
Ar -6.732637e-01 0.000000e+00 0.000000e+00
1
Step 652000