1
Step 120000
Ar 1.134915e+00 0.000000e+00 0.000000e+00
1
Step 121000
Ar 9.843001e-01 0.000000e+00 0.000000e+00
1
Step 122000
Ar 7.981220e-01 0.000000e+00 0.000000e+00
1
Step 123000
Ar 7.050325e-01 0.000000e+00 0.000000e+00
1
Step 124000
Ar 7.518891e-01 0.000000e+00 0.000000e+00
1
Step 125000
Ar 1.124737e+00 0.000000e+00 0.000000e+00
1
Step 126000
Ar 1.163855e+00 0.000000e+00 0.000000e+00
1
Step 127000
Ar 1.228346e+00 0.000000e+00 0.000000e+00
1
Step 128000
Ar 1.140771e+00 0.000000e+00 0.000000e+00
1
Step 129000
Ar 1.157669e+00 0.000000e+00 0.000000e+00
1
Step 130000
Ar 1.252043e+00 0.000000e+00 0.000000e+00
1
Step 131000
Ar 1.271568e+00 0.000000e+00 0.000000e+00
1
Step 132000
Ar 1.312312e+00 0.000000e+00 0.000000e+00
1
Step 133000
Ar 1.271929e+00 0.000000e+00 0.000000e+00
1
Step 134000
Ar 1.277624e+00 0.000000e+00 0.000000e+00
1
Step 135000
Ar 1.320734e+00 0.000000e+00 0.000000e+00
1
Step 136000
Ar 1.294071e+00 0.000000e+00 0.000000e+00
1
Step 137000
Ar 1.271178e+00 0.000000e+00 0.000000e+00
1
Step 138000
Ar 1.293240e+00 0.000000e+00 0.000000e+00
1
Step 139000
Ar 1.263508e+00 0.000000e+00 0.000000e+00
1
Step 140000
Ar 1.267920e+00 0.000000e+00 0.000000e+00
1
Step 141000
Ar 1.284210e+00 0.000000e+00 0.000000e+00
1
Step 142000
Ar 1.294307e+00 0.000000e+00 0.000000e+00
1
Step 143000
Ar 1.301143e+00 0.000000e+00 0.000000e+00
1
Step 144000
Ar 1.276818e+00 0.000000e+00 0.000000e+00
1
Step 145000
Ar 1.301469e+00 0.000000e+00 0.000000e+00
1
Step 146000
Ar 1.285873e+00 0.000000e+00 0.000000e+00
1
Step 147000
Ar 1.278469e+00 0.000000e+00 0.000000e+00
1
Step 148000
Ar 1.286992e+00 0.000000e+00 0.000000e+00
1
Step 149000
Ar 1.280163e+00 0.000000e+00 0.000000e+00
1
Step 150000
Ar 1.290075e+00 0.000000e+00 0.000000e+00
1
Step 151000
Ar 9.092461e-01 0.000000e+00 0.000000e+00
1
Step 152000
Ar 1.051261e+00 0.000000e+00 0.000000e+00
1
Step 153000
Ar 8.689023e-01 0.000000e+00 0.000000e+00
1
Step 154000
Ar 9.886203e-01 0.000000e+00 0.000000e+00
1
Step 155000
Ar 1.015542e+00 0.000000e+00 0.000000e+00
1
Step 156000
Ar 9.994666e-01 0.000000e+00 0.000000e+00
1
Step 157000
Ar 8.504814e-01 0.000000e+00 0.000000e+00
1
Step 158000
Ar 9.816793e-01 0.000000e+00 0.000000e+00
1
Step 159000
Ar 7.211452e-01 0.000000e+00 0.000000e+00
1
Step 160000
Ar 9.833076e-01 0.000000e+00 0.000000e+00
1
Step 161000
Ar 9.972758e-01 0.000000e+00 0.000000e+00
1
Step 162000
Ar 9.976709e-01 0.000000e+00 0.000000e+00
1
Step 163000
Ar 9.999184e-01 0.000000e+00 0.000000e+00
1
Step 164000
Ar 1.000986e+00 0.000000e+00 0.000000e+00
1
Step 165000
Ar 1.001290e+00 0.000000e+00 0.000000e+00
1
Step 166000
Ar 1.088207e+00 0.000000e+00 0.000000e+00
1
Step 167000
Ar 1.040422e+00 0.000000e+00 0.000000e+00
1
Step 168000
Ar 1.032985e+00 0.000000e+00 0.000000e+00
1
Step 169000
Ar 1.070510e+00 0.000000e+00 0.000000e+00
1
Step 170000
Ar 1.028451e+00 0.000000e+00 0.000000e+00
1
Step 171000
Ar 1.102404e+00 0.000000e+00 0.000000e+00
1
Step 172000
Ar 1.059462e+00 0.000000e+00 0.000000e+00
1
Step 173000
Ar 1.055736e+00 0.000000e+00 0.000000e+00
1
Step 174000
Ar 1.070395e+00 0.000000e+00 0.000000e+00
1
Step 175000
Ar 1.057414e+00 0.000000e+00 0.000000e+00
1
Step 176000
Ar 7.893846e-01 0.000000e+00 0.000000e+00
1
Step 177000
Ar 9.103349e-01 0.000000e+00 0.000000e+00
1
Step 178000
Ar 9.330202e-01 0.000000e+00 0.000000e+00
1
Step 179000
Ar 8.896447e-01 0.000000e+00 0.000000e+00
1
Step 180000
Ar 9.606374e-01 0.000000e+00 0.000000e+00
1
Step 181000
Ar 9.268337e-01 0.000000e+00 0.000000e+00
1
Step 182000
Ar 8.757461e-01 0.000000e+00 0.000000e+00
1
Step 183000
Ar 9.066885e-01 0.000000e+00 0.000000e+00
1
Step 184000
Ar 8.504201e-01 0.000000e+00 0.000000e+00
1
Step 185000
Ar 9.364952e-01 0.000000e+00 0.000000e+00
1
Step 186000
Ar 9.193916e-01 0.000000e+00 0.000000e+00
1
Step 187000
Ar 9.133428e-01 0.000000e+00 0.000000e+00
1
Step 188000
Ar 8.886056e-01 0.000000e+00 0.000000e+00
1
Step 189000
Ar 8.625190e-01 0.000000e+00 0.000000e+00
1
Step 190000
Ar 8.769726e-01 0.000000e+00 0.000000e+00
1
Step 191000
Ar 9.095591e-01 0.000000e+00 0.000000e+00
1
Step 192000
Ar 8.939462e-01 0.000000e+00 0.000000e+00
1
Step 193000
Ar 9.160745e-01 0.000000e+00 0.000000e+00
1
Step 194000
Ar 8.901490e-01 0.000000e+00 0.000000e+00
1
Step 195000
Ar 9.213910e-01 0.000000e+00 0.000000e+00
1
Step 196000
Ar 9.087423e-01 0.000000e+00 0.000000e+00
1
Step 197000
Ar 9.019549e-01 0.000000e+00 0.000000e+00
1
Step 198000
Ar 8.951119e-01 0.000000e+00 0.000000e+00
1
Step 199000
Ar 8.910985e-01 0.000000e+00 0.000000e+00
1
Step 200000
Ar 9.068203e-01 0.000000e+00 0.000000e+00
1
Step 201000
Ar 1.153317e+00 0.000000e+00 0.000000e+00
1
Step 202000
Ar 1.166500e+00 0.000000e+00 0.000000e+00
1
Step 203000
Ar 1.177416e+00 0.000000e+00 0.000000e+00
1
Step 204000
Ar 1.165023e+00 0.000000e+00 0.000000e+00
1
Step 205000
Ar 1.142035e+00 0.000000e+00 0.000000e+00
1
Step 206000
Ar 1.167206e+00 0.000000e+00 0.000000e+00
1
Step 207000
Ar 1.160408e+00 0.000000e+00 0.000000e+00
1
Step 208000
Ar 1.165685e+00 0.000000e+00 0.000000e+00
1
Step 209000
Ar 1.239074e+00 0.000000e+00 0.000000e+00
1
Step 210000
Ar 1.173525e+00 0.000000e+00 0.000000e+00
1
Step 211000
Ar 1.219579e+00 0.000000e+00 0.000000e+00
1
Step 212000
Ar 1.229267e+00 0.000000e+00 0.000000e+00
1
Step 213000
Ar 1.225076e+00 0.000000e+00 0.000000e+00
1
Step 214000
Ar 1.242048e+00 0.000000e+00 0.000000e+00
1
Step 215000
Ar 1.186766e+00 0.000000e+00 0.000000e+00
1
Step 216000
Ar 1.158418e+00 0.000000e+00 0.000000e+00
1
Step 217000
Ar 1.165700e+00 0.000000e+00 0.000000e+00
1
Step 218000
Ar 1.158938e+00 0.000000e+00 0.000000e+00
1
Step 219000
Ar 1.156828e+00 0.000000e+00 0.000000e+00
1
Step 220000
Ar 1.157422e+00 0.000000e+00 0.000000e+00
1
Step 221000
Ar 1.168608e+00 0.000000e+00 0.000000e+00
1
Step 222000
Ar 6.796716e-01 0.000000e+00 0.000000e+00
1
Step 223000
Ar 8.520540e-01 0.000000e+00 0.000000e+00
1
Step 224000
Ar 8.019634e-01 0.000000e+00 0.000000e+00
1
Step 225000
Ar 8.613385e-01 0.000000e+00 0.000000e+00
1
Step 226000
Ar 8.103810e-01 0.000000e+00 0.000000e+00
1
Step 227000
Ar 7.978584e-01 0.000000e+00 0.000000e+00
1
Step 228000
Ar 8.046340e-01 0.000000e+00 0.000000e+00
1
Step 229000
Ar 8.065114e-01 0.000000e+00 0.000000e+00
1
Step 230000
Ar 6.660279e-01 0.000000e+00 0.000000e+00
1
Step 231000
Ar 8.001605e-01 0.000000e+00 0.000000e+00
1
Step 232000
Ar 7.095883e-01 0.000000e+00 0.000000e+00
1
Step 233000
Ar 8.006259e-01 0.000000e+00 0.000000e+00
1
Step 234000
Ar 7.507995e-01 0.000000e+00 0.000000e+00
1
Step 235000
Ar 7.362741e-01 0.000000e+00 0.000000e+00
1
Step 236000
Ar 5.971877e-01 0.000000e+00 0.000000e+00
1
Step 237000
Ar 5.782591e-01 0.000000e+00 0.000000e+00
1
Step 238000
Ar 6.530303e-01 0.000000e+00 0.000000e+00
1
Step 239000
Ar 5.910876e-01 0.000000e+00 0.000000e+00
1
Step 240000
Ar 5.032335e-01 0.000000e+00 0.000000e+00
1
Step 241000
Ar -1.059732e+00 0.000000e+00 0.000000e+00
1
Step 242000
Ar -9.542732e-01 0.000000e+00 0.000000e+00
1
Step 243000
Ar -9.436356e-01 0.000000e+00 0.000000e+00
1
Step 244000
Ar -8.229216e-01 0.000000e+00 0.000000e+00
1
Step 245000
Ar -7.587272e-01 0.000000e+00 0.000000e+00
1
Step 246000
Ar -7.430346e-01 0.000000e+00 0.000000e+00
1
Step 247000
Ar -7.359869e-01 0.000000e+00 0.000000e+00
1
Step 248000
Ar -7.388788e-01 0.000000e+00 0.000000e+00
1
Step 249000
Ar -7.110353e-01 0.000000e+00 0.000000e+00
1
Step 250000
Ar -6.854281e-01 0.000000e+00 0.000000e+00
1
Step 251000
Ar -6.577656e-01 0.000000e+00 0.000000e+00
1
Step 252000
Ar -5.613236e-01 0.000000e+00 0.000000e+00
1
Step 253000
Ar -5.542007e-01 0.000000e+00 0.000000e+00
1
Step 254000
Ar -6.169146e-01 0.000000e+00 0.000000e+00
1
Step 255000
Ar -5.587319e-01 0.000000e+00 0.000000e+00
1
Step 256000
Ar -6.718301e-01 0.000000e+00 0.000000e+00
1
Step 257000
Ar -6.307737e-01 0.000000e+00 0.000000e+00
1
Step 258000
Ar -6.137441e-01 0.000000e+00 0.000000e+00
1
Step 259000
Ar -5.926387e-01 0.000000e+00 0.000000e+00
1
Step 260000
Ar -6.529136e-01 0.000000e+00 0.000000e+00
1
Step 261000
Ar -6.725762e-01 0.000000e+00 0.000000e+00
1
Step 262000
Ar -6.711550e-01 0.000000e+00 0.000000e+00
1
Step 263000
Ar -6.699920e-01 0.000000e+00 0.000000e+00
1
Step 264000
Ar -6.655544e-01 0.000000e+00 0.000000e+00
1
Step 265000
Ar -6.650853e-01 0.000000e+00 0.000000e+00
1
Step 266000
Ar -8.201997e-01 0.000000e+00 0.000000e+00
1
Step 267000
Ar -1.067503e+00 0.000000e+00 0.000000e+00
1
Step 268000
Ar -9.655621e-01 0.000000e+00 0.000000e+00
1
Step 269000
Ar -9.502787e-01 0.000000e+00 0.000000e+00
1
Step 270000
Ar -1.040782e+00 0.000000e+00 0.000000e+00
1
Step 271000
Ar -9.305986e-01 0.000000e+00 0.000000e+00
1
Step 272000
Ar -9.373035e-01 0.000000e+00 0.000000e+00
1
Step 273000
Ar -9.325157e-01 0.000000e+00 0.000000e+00
1
Step 274000
Ar -9.720087e-01 0.000000e+00 0.000000e+00
1
Step 275000
Ar -9.925073e-01 0.000000e+00 0.000000e+00
1
Step 276000
Ar -1.027072e+00 0.000000e+00 0.000000e+00
1
Step 277000
Ar -1.010477e+00 0.000000e+00 0.000000e+00
1
Step 278000
Ar -1.011708e+00 0.000000e+00 0.000000e+00
1
Step 279000
Ar -1.021584e+00 0.000000e+00 0.000000e+00
1
Step 280000
Ar -1.011643e+00 0.000000e+00 0.000000e+00
1
Step 281000
Ar -8.817505e-01 0.000000e+00 0.000000e+00
1
Step 282000
Ar -8.512053e-01 0.000000e+00 0.000000e+00
1
Step 283000
Ar -9.615575e-01 0.000000e+00 0.000000e+00
1
Step 284000
Ar -8.473829e-01 0.000000e+00 0.000000e+00
1
Step 285000
Ar -8.615727e-01 0.000000e+00 0.000000e+00
1
Step 286000
Ar -9.858510e-01 0.000000e+00 0.000000e+00
1
Step 287000
Ar -9.757376e-01 0.000000e+00 0.000000e+00
1
Step 288000
Ar -9.115206e-01 0.000000e+00 0.000000e+00
1
Step 289000
Ar -9.117132e-01 0.000000e+00 0.000000e+00
1
Step 290000
Ar -9.079286e-01 0.000000e+00 0.000000e+00
1
Step 291000
Ar -9.817939e-01 0.000000e+00 0.000000e+00
1
Step 292000
Ar -9.669944e-01 0.000000e+00 0.000000e+00
1
Step 293000
Ar -9.754620e-01 0.000000e+00 0.000000e+00
1
Step 294000
Ar -9.603072e-01 0.000000e+00 0.000000e+00
1
Step 295000
Ar -9.759091e-01 0.000000e+00 0.000000e+00
1
Step 296000
Ar -1.057106e+00 0.000000e+00 0.000000e+00
1
Step 297000
Ar -1.171118e+00 0.000000e+00 0.000000e+00
1
Step 298000
Ar -1.254020e+00 0.000000e+00 0.000000e+00
1
Step 299000
Ar -1.090086e+00 0.000000e+00 0.000000e+00
1
Step 300000
Ar -1.157739e+00 0.000000e+00 0.000000e+00
1
Step 301000
Ar -1.253848e+00 0.000000e+00 0.000000e+00
1
Step 302000
Ar -1.199042e+00 0.000000e+00 0.000000e+00
1
Step 303000
Ar -1.183697e+00 0.000000e+00 0.000000e+00
1
Step 304000
Ar -1.251933e+00 0.000000e+00 0.000000e+00
1
Step 305000
Ar -1.239967e+00 0.000000e+00 0.000000e+00
1
Step 306000
Ar -1.204332e+00 0.000000e+00 0.000000e+00
1
Step 307000
Ar -1.205051e+00 0.000000e+00 0.000000e+00
1
Step 308000
Ar -1.178510e+00 0.000000e+00 0.000000e+00
1
Step 309000
Ar -1.189643e+00 0.000000e+00 0.000000e+00
1
Step 310000
Ar -1.215430e+00 0.000000e+00 0.000000e+00
1
Step 311000
Ar -1.121427e+00 0.000000e+00 0.000000e+00
1
Step 312000
Ar -1.069697e+00 0.000000e+00 0.000000e+00
1
Step 313000
Ar -1.128503e+00 0.000000e+00 0.000000e+00
1
Step 314000
Ar -1.067048e+00 0.000000e+00 0.000000e+00
1
Step 315000
Ar -1.070181e+00 0.000000e+00 0.000000e+00
1
Step 316000
Ar -8.730585e-01 0.000000e+00 0.000000e+00
1
Step 317000
Ar -8.966328e-01 0.000000e+00 0.000000e+00
1
Step 318000
Ar -8.971633e-01 0.000000e+00 0.000000e+00
1
Step 319000
Ar -8.840576e-01 0.000000e+00 0.000000e+00
1
Step 320000
Ar -8.872886e-01 0.000000e+00 0.000000e+00
1
Step 321000
Ar -8.347155e-01 0.000000e+00 0.000000e+00
1
Step 322000
Ar -8.442528e-01 0.000000e+00 0.000000e+00
1
Step 323000
Ar -8.251586e-01 0.000000e+00 0.000000e+00
1
Step 324000
Ar -8.462427e-01 0.000000e+00 0.000000e+00
1
Step 325000
Ar -8.015808e-01 0.000000e+00 0.000000e+00
1
Step 326000
Ar -8.699888e-01 0.000000e+00 0.000000e+00
1
Step 327000
Ar -8.726766e-01 0.000000e+00 0.000000e+00
1
Step 328000
Ar -8.744326e-01 0.000000e+00 0.000000e+00
1
Step 329000
Ar -8.761695e-01 0.000000e+00 0.000000e+00
1
Step 330000
Ar -8.750903e-01 0.000000e+00 0.000000e+00
1
Step 331000
Ar -9.013376e-01 0.000000e+00 0.000000e+00
1
Step 332000
Ar -8.233550e-01 0.000000e+00 0.000000e+00
1
Step 333000
Ar -8.437892e-01 0.000000e+00 0.000000e+00
1
Step 334000
Ar -8.166925e-01 0.000000e+00 0.000000e+00
1
Step 335000
Ar -8.312363e-01 0.000000e+00 0.000000e+00
1
Step 336000
Ar -8.407802e-01 0.000000e+00 0.000000e+00
1
Step 337000
Ar -8.403443e-01 0.000000e+00 0.000000e+00
1
Step 338000
Ar -8.437204e-01 0.000000e+00 0.000000e+00
1
Step 339000
Ar -8.530124e-01 0.000000e+00 0.000000e+00
1
Step 340000
Ar -8.484323e-01 0.000000e+00 0.000000e+00
1
Step 341000
Ar -7.179967e-01 0.000000e+00 0.000000e+00
1
Step 342000
Ar -7.284726e-01 0.000000e+00 0.000000e+00
1
Step 343000
Ar -7.362822e-01 0.000000e+00 0.000000e+00
1
Step 344000
Ar -7.463225e-01 0.000000e+00 0.000000e+00
1
Step 345000
Ar -7.289827e-01 0.000000e+00 0.000000e+00
1
Step 346000
Ar -7.146174e-01 0.000000e+00 0.000000e+00
1
Step 347000
Ar -6.967854e-01 0.000000e+00 0.000000e+00
1
Step 348000
Ar -7.140124e-01 0.000000e+00 0.000000e+00
1
Step 349000
Ar -7.130813e-01 0.000000e+00 0.000000e+00
1
Step 350000
Ar -6.951236e-01 0.000000e+00 0.000000e+00
1
Step 351000
Ar -8.133526e-01 0.000000e+00 0.000000e+00
1
Step 352000
Ar -8.132881e-01 0.000000e+00 0.000000e+00
1
Step 353000
Ar -8.184479e-01 0.000000e+00 0.000000e+00
1
Step 354000
Ar -8.185188e-01 0.000000e+00 0.000000e+00
1
Step 355000
Ar -8.204390e-01 0.000000e+00 0.000000e+00
1
Step 356000
Ar -7.802155e-01 0.000000e+00 0.000000e+00
1
Step 357000
Ar -7.936011e-01 0.000000e+00 0.000000e+00
1
Step 358000
Ar -7.826943e-01 0.000000e+00 0.000000e+00
1
Step 359000
Ar -7.696452e-01 0.000000e+00 0.000000e+00
1
Step 360000
Ar -7.866185e-01 0.000000e+00 0.000000e+00
1
Step 361000
Ar -7.738306e-01 0.000000e+00 0.000000e+00
1
Step 362000
Ar -7.746931e-01 0.000000e+00 0.000000e+00
1
Step 363000
Ar -7.742111e-01 0.000000e+00 0.000000e+00
1
Step 364000
Ar -7.760510e-01 0.000000e+00 0.000000e+00
1
Step 365000
Ar -7.739898e-01 0.000000e+00 0.000000e+00
1
Step 366000
Ar -8.980070e-01 0.000000e+00 0.000000e+00
1
Step 367000
Ar -8.997622e-01 0.000000e+00 0.000000e+00
1
Step 368000
Ar -8.971529e-01 0.000000e+00 0.000000e+00
1
Step 369000
Ar -8.999596e-01 0.000000e+00 0.000000e+00
1
Step 370000
Ar -8.959723e-01 0.000000e+00 0.000000e+00
1
Step 371000
Ar -9.622789e-01 0.000000e+00 0.000000e+00
1
Step 372000
Ar -9.382138e-01 0.000000e+00 0.000000e+00
1
Step 373000
Ar -9.424398e-01 0.000000e+00 0.000000e+00
1
Step 374000
Ar -9.485781e-01 0.000000e+00 0.000000e+00
1
Step 375000
Ar -9.601768e-01 0.000000e+00 0.000000e+00
1
Step 376000
Ar -9.433353e-01 0.000000e+00 0.000000e+00
1
Step 377000
Ar -9.351384e-01 0.000000e+00 0.000000e+00
1
Step 378000
Ar -9.225570e-01 0.000000e+00 0.000000e+00
1
Step 379000
Ar -9.469312e-01 0.000000e+00 0.000000e+00
1
Step 380000
Ar -9.340575e-01 0.000000e+00 0.000000e+00
1
Step 381000
Ar -9.219183e-01 0.000000e+00 0.000000e+00
1
Step 382000
Ar -9.181507e-01 0.000000e+00 0.000000e+00
1
Step 383000
Ar -9.228115e-01 0.000000e+00 0.000000e+00
1
Step 384000
Ar -9.156755e-01 0.000000e+00 0.000000e+00
1
Step 385000
Ar -9.224215e-01 0.000000e+00 0.000000e+00
1
Step 386000
Ar -1.187174e+00 0.000000e+00 0.000000e+00
1
Step 387000
Ar -1.193893e+00 0.000000e+00 0.000000e+00
1
Step 388000
Ar -1.198462e+00 0.000000e+00 0.000000e+00
1
Step 389000
Ar -1.195077e+00 0.000000e+00 0.000000e+00
1
Step 390000
Ar -1.193916e+00 0.000000e+00 0.000000e+00
1
Step 391000
Ar -1.183199e+00 0.000000e+00 0.000000e+00
1
Step 392000
Ar -1.182399e+00 0.000000e+00 0.000000e+00
1
Step 393000
Ar -1.171931e+00 0.000000e+00 0.000000e+00
1
Step 394000
Ar -1.176424e+00 0.000000e+00 0.000000e+00
1
Step 395000
Ar -1.181027e+00 0.000000e+00 0.000000e+00
1
Step 396000
Ar -1.086995e+00 0.000000e+00 0.000000e+00
1
Step 397000
Ar -1.097213e+00 0.000000e+00 0.000000e+00
1
Step 398000
Ar -1.080738e+00 0.000000e+00 0.000000e+00
1
Step 399000
Ar -1.097889e+00 0.000000e+00 0.000000e+00
1
Step 400000
Ar -1.108660e+00 0.000000e+00 0.000000e+00
1
Step 401000
Ar -1.140617e+00 0.000000e+00 0.000000e+00
1
Step 402000
Ar -1.123566e+00 0.000000e+00 0.000000e+00
1
Step 403000
Ar -1.127000e+00 0.000000e+00 0.000000e+00
1
Step 404000
Ar -1.121529e+00 0.000000e+00 0.000000e+00
1
Step 405000
Ar -1.127642e+00 0.000000e+00 0.000000e+00
1
Step 406000
Ar -1.145731e+00 0.000000e+00 0.000000e+00
1
Step 407000
Ar -1.144969e+00 0.000000e+00 0.000000e+00
1
Step 408000
Ar -1.146857e+00 0.000000e+00 0.000000e+00
1
Step 409000
Ar -1.138652e+00 0.000000e+00 0.000000e+00
1
Step 410000
Ar -1.145781e+00 0.000000e+00 0.000000e+00
1
Step 411000
Ar -1.139368e+00 0.000000e+00 0.000000e+00
1
Step 412000
Ar -1.025409e+00 0.000000e+00 0.000000e+00
1
Step 413000
Ar -1.021392e+00 0.000000e+00 0.000000e+00
1
Step 414000
Ar -1.024250e+00 0.000000e+00 0.000000e+00
1
Step 415000
Ar -1.027332e+00 0.000000e+00 0.000000e+00
1
Step 416000
Ar -1.054559e+00 0.000000e+00 0.000000e+00
1
Step 417000
Ar -1.059293e+00 0.000000e+00 0.000000e+00
1
Step 418000
Ar -1.053380e+00 0.000000e+00 0.000000e+00
1
Step 419000
Ar -1.053672e+00 0.000000e+00 0.000000e+00
1
Step 420000
Ar -1.052546e+00 0.000000e+00 0.000000e+00
1
Step 421000
Ar -1.256816e+00 0.000000e+00 0.000000e+00
1
Step 422000
Ar -1.252685e+00 0.000000e+00 0.000000e+00
1
Step 423000
Ar -1.250160e+00 0.000000e+00 0.000000e+00
1
Step 424000
Ar -1.268981e+00 0.000000e+00 0.000000e+00
1
Step 425000
Ar -1.286632e+00 0.000000e+00 0.000000e+00
1
Step 426000
Ar -1.305459e+00 0.000000e+00 0.000000e+00
1
Step 427000
Ar -1.331111e+00 0.000000e+00 0.000000e+00
1
Step 428000
Ar -1.302732e+00 0.000000e+00 0.000000e+00
1
Step 429000
Ar -1.301629e+00 0.000000e+00 0.000000e+00
1
Step 430000
Ar -1.318955e+00 0.000000e+00 0.000000e+00
1
Step 431000
Ar -7.450308e-01 0.000000e+00 0.000000e+00
1
Step 432000
Ar -7.415231e-01 0.000000e+00 0.000000e+00
1
Step 433000
Ar -7.440060e-01 0.000000e+00 0.000000e+00
1
Step 434000
Ar -7.451593e-01 0.000000e+00 0.000000e+00
1
Step 435000
Ar -7.423441e-01 0.000000e+00 0.000000e+00
1
Step 436000
Ar -1.093266e+00 0.000000e+00 0.000000e+00
1
Step 437000
Ar -1.087417e+00 0.000000e+00 0.000000e+00
1
Step 438000
Ar -1.095905e+00 0.000000e+00 0.000000e+00
1
Step 439000
Ar -1.084989e+00 0.000000e+00 0.000000e+00
1
Step 440000
Ar -1.093558e+00 0.000000e+00 0.000000e+00
1
Step 441000
Ar -1.170283e+00 0.000000e+00 0.000000e+00
1
Step 442000
Ar -1.170832e+00 0.000000e+00 0.000000e+00
1
Step 443000
Ar -1.170926e+00 0.000000e+00 0.000000e+00
1
Step 444000
Ar -1.166266e+00 0.000000e+00 0.000000e+00
1
Step 445000
Ar -1.167775e+00 0.000000e+00 0.000000e+00
1
Step 446000
Ar -1.391848e+00 0.000000e+00 0.000000e+00
1
Step 447000
Ar -1.345306e+00 0.000000e+00 0.000000e+00
1
Step 448000
Ar -1.366238e+00 0.000000e+00 0.000000e+00
1
Step 449000
Ar -1.358612e+00 0.000000e+00 0.000000e+00
1
Step 450000
Ar -1.374807e+00 0.000000e+00 0.000000e+00
1
Step 451000
Ar -1.204520e+00 0.000000e+00 0.000000e+00
1
Step 452000
Ar -1.208896e+00 0.000000e+00 0.000000e+00
1
Step 453000
Ar -1.204682e+00 0.000000e+00 0.000000e+00
1
Step 454000
Ar -1.200039e+00 0.000000e+00 0.000000e+00
1
Step 455000
Ar -1.206236e+00 0.000000e+00 0.000000e+00
1
Step 456000
Ar -9.496511e-01 0.000000e+00 0.000000e+00
1
Step 457000
Ar -9.484764e-01 0.000000e+00 0.000000e+00
1
Step 458000
Ar -9.470836e-01 0.000000e+00 0.000000e+00
1
Step 459000
Ar -9.465052e-01 0.000000e+00 0.000000e+00
1
Step 460000
Ar -9.467585e-01 0.000000e+00 0.000000e+00
1
Step 461000
Ar -1.255065e+00 0.000000e+00 0.000000e+00
1
Step 462000
Ar -1.264223e+00 0.000000e+00 0.000000e+00
1
Step 463000
Ar -1.253821e+00 0.000000e+00 0.000000e+00
1
Step 464000
Ar -1.260060e+00 0.000000e+00 0.000000e+00
1
Step 465000
Ar -1.256147e+00 0.000000e+00 0.000000e+00
1
Step 466000
Ar -1.269059e+00 0.000000e+00 0.000000e+00
1
Step 467000
Ar -1.268199e+00 0.000000e+00 0.000000e+00
1
Step 468000
Ar -1.275877e+00 0.000000e+00 0.000000e+00
1
Step 469000
Ar -1.272163e+00 0.000000e+00 0.000000e+00
1
Step 470000
Ar -1.270243e+00 0.000000e+00 0.000000e+00
1
Step 471000
Ar -1.417873e+00 0.000000e+00 0.000000e+00
1
Step 472000
Ar -1.383543e+00 0.000000e+00 0.000000e+00
1
Step 473000
Ar -1.391433e+00 0.000000e+00 0.000000e+00
1
Step 474000
Ar -1.410532e+00 0.000000e+00 0.000000e+00
1
Step 475000
Ar -1.391475e+00 0.000000e+00 0.000000e+00
1
Step 476000
Ar -1.297650e+00 0.000000e+00 0.000000e+00
1
Step 477000
Ar -1.306635e+00 0.000000e+00 0.000000e+00
1
Step 478000
Ar -1.302707e+00 0.000000e+00 0.000000e+00
1
Step 479000
Ar -1.306724e+00 0.000000e+00 0.000000e+00
1
Step 480000
Ar -1.299567e+00 0.000000e+00 0.000000e+00
1
Step 481000
Ar -1.341285e+00 0.000000e+00 0.000000e+00
1
Step 482000
Ar -1.355121e+00 0.000000e+00 0.000000e+00
1
Step 483000
Ar -1.341640e+00 0.000000e+00 0.000000e+00
1
Step 484000
Ar -1.356765e+00 0.000000e+00 0.000000e+00
1
Step 485000
Ar -1.347477e+00 0.000000e+00 0.000000e+00
1
Step 486000
Ar -9.738316e-01 0.000000e+00 0.000000e+00
1
Step 487000
Ar -9.818702e-01 0.000000e+00 0.000000e+00
1
Step 488000
Ar -1.137943e+00 0.000000e+00 0.000000e+00
1
Step 489000
Ar -1.070098e+00 0.000000e+00 0.000000e+00
1
Step 490000
Ar -1.083514e+00 0.000000e+00 0.000000e+00
1
Step 491000
Ar -1.138611e+00 0.000000e+00 0.000000e+00
1
Step 492000
Ar -1.006495e+00 0.000000e+00 0.000000e+00
1
Step 493000
Ar -5.119051e-01 0.000000e+00 0.000000e+00
1
Step 494000
Ar -2.450708e-01 0.000000e+00 0.000000e+00
1
Step 495000
Ar -5.189287e-01 0.000000e+00 0.000000e+00
1
Step 496000
Ar -3.865676e-01 0.000000e+00 0.000000e+00
1
Step 497000
Ar -4.206339e-01 0.000000e+00 0.000000e+00
1
Step 498000
Ar -4.360148e-01 0.000000e+00 0.000000e+00
1
Step 499000
Ar -4.639090e-01 0.000000e+00 0.000000e+00
1
Step 500000
Ar -3.890899e-01 0.000000e+00 0.000000e+00
1
Step 501000
Ar -4.854699e-01 0.000000e+00 0.000000e+00
1
Step 502000
Ar -4.742855e-01 0.000000e+00 0.000000e+00
1
Step 503000
Ar -4.977419e-01 0.000000e+00 0.000000e+00
1
Step 504000
Ar -4.888871e-01 0.000000e+00 0.000000e+00
1
Step 505000
Ar -4.819787e-01 0.000000e+00 0.000000e+00
1
Step 506000
Ar -6.254960e-01 0.000000e+00 0.000000e+00
1
Step 507000
Ar -5.843432e-01 0.000000e+00 0.000000e+00
1
Step 508000
Ar -6.319388e-01 0.000000e+00 0.000000e+00
1
Step 509000
Ar -5.700081e-01 0.000000e+00 0.000000e+00
1
Step 510000
Ar -5.907006e-01 0.000000e+00 0.000000e+00
1
Step 511000
Ar -6.177671e-01 0.000000e+00 0.000000e+00
1
Step 512000
Ar -6.317677e-01 0.000000e+00 0.000000e+00
1
Step 513000
Ar -6.136842e-01 0.000000e+00 0.000000e+00
1
Step 514000
Ar -6.397950e-01 0.000000e+00 0.000000e+00
1
Step 515000
Ar -6.275999e-01 0.000000e+00 0.000000e+00
1
Step 516000
Ar -4.064077e-01 0.000000e+00 0.000000e+00
1
Step 517000
Ar -4.651199e-01 0.000000e+00 0.000000e+00
1
Step 518000
Ar -4.383184e-01 0.000000e+00 0.000000e+00
1
Step 519000
Ar -4.544638e-01 0.000000e+00 0.000000e+00
1
Step 520000
Ar -4.571914e-01 0.000000e+00 0.000000e+00
1
Step 521000
Ar -5.315354e-01 0.000000e+00 0.000000e+00
1
Step 522000
Ar -5.417216e-01 0.000000e+00 0.000000e+00
1
Step 523000
Ar -5.334247e-01 0.000000e+00 0.000000e+00
1
Step 524000
Ar -5.368124e-01 0.000000e+00 0.000000e+00
1
Step 525000
Ar -5.433542e-01 0.000000e+00 0.000000e+00
1
Step 526000
Ar -5.737376e-01 0.000000e+00 0.000000e+00
1
Step 527000
Ar -5.759889e-01 0.000000e+00 0.000000e+00
1
Step 528000
Ar -5.758920e-01 0.000000e+00 0.000000e+00
1
Step 529000
Ar -5.741118e-01 0.000000e+00 0.000000e+00
1
Step 530000
Ar -5.767502e-01 0.000000e+00 0.000000e+00
1
Step 531000
Ar -6.062742e-01 0.000000e+00 0.000000e+00
1
Step 532000
Ar -6.064016e-01 0.000000e+00 0.000000e+00
1
Step 533000
Ar -6.110841e-01 0.000000e+00 0.000000e+00
1
Step 534000
Ar -6.099983e-01 0.000000e+00 0.000000e+00
1
Step 535000
Ar -6.118880e-01 0.000000e+00 0.000000e+00
1
Step 536000
Ar -8.663329e-01 0.000000e+00 0.000000e+00
1
Step 537000
Ar -7.100857e-01 0.000000e+00 0.000000e+00
1
Step 538000
Ar -7.140098e-01 0.000000e+00 0.000000e+00
1
Step 539000
Ar -7.097592e-01 0.000000e+00 0.000000e+00
1
Step 540000
Ar -7.076679e-01 0.000000e+00 0.000000e+00
1
Step 541000
Ar -6.382716e-01 0.000000e+00 0.000000e+00
1
Step 542000
Ar -6.407269e-01 0.000000e+00 0.000000e+00
1
Step 543000
Ar -6.398429e-01 0.000000e+00 0.000000e+00
1
Step 544000
Ar -6.406810e-01 0.000000e+00 0.000000e+00
1
Step 545000
Ar -6.386860e-01 0.000000e+00 0.000000e+00
1
Step 546000
Ar -1.230942e+00 0.000000e+00 0.000000e+00
1
Step 547000
Ar -1.225228e+00 0.000000e+00 0.000000e+00
1
Step 548000
Ar -1.227900e+00 0.000000e+00 0.000000e+00
1
Step 549000
Ar -1.230468e+00 0.000000e+00 0.000000e+00
1
Step 550000
Ar -1.230818e+00 0.000000e+00 0.000000e+00
1
Step 551000
Ar -9.401195e-01 0.000000e+00 0.000000e+00
1
Step 552000
Ar -9.669189e-01 0.000000e+00 0.000000e+00
1
Step 553000
Ar -6.903473e-01 0.000000e+00 0.000000e+00
1
Step 554000
Ar -4.993843e-01 0.000000e+00 0.000000e+00
1
Step 555000
Ar -5.057309e-01 0.000000e+00 0.000000e+00
1
Step 556000
Ar -5.300957e-01 0.000000e+00 0.000000e+00
1
Step 557000
Ar -5.276634e-01 0.000000e+00 0.000000e+00
1
Step 558000
Ar -5.310340e-01 0.000000e+00 0.000000e+00
1
Step 559000
Ar -5.331581e-01 0.000000e+00 0.000000e+00
1
Step 560000
Ar -5.324127e-01 0.000000e+00 0.000000e+00
1
Step 561000
Ar -5.238278e-01 0.000000e+00 0.000000e+00
1
Step 562000
Ar -1.413024e+00 0.000000e+00 0.000000e+00
1
Step 563000
Ar -1.448349e+00 0.000000e+00 0.000000e+00
1
Step 564000
Ar -1.405768e+00 0.000000e+00 0.000000e+00
1
Step 565000
Ar -1.424635e+00 0.000000e+00 0.000000e+00
1
Step 566000
Ar -1.442475e+00 0.000000e+00 0.000000e+00
1
Step 567000
Ar -1.448556e+00 0.000000e+00 0.000000e+00
1
Step 568000
Ar -1.444423e+00 0.000000e+00 0.000000e+00
1
Step 569000
Ar -1.443051e+00 0.000000e+00 0.000000e+00
1
Step 570000
Ar -1.439664e+00 0.000000e+00 0.000000e+00
1
Step 571000
Ar -1.454408e+00 0.000000e+00 0.000000e+00
1
Step 572000
Ar -1.450388e+00 0.000000e+00 0.000000e+00
1
Step 573000
Ar -1.480371e+00 0.000000e+00 0.000000e+00
1
Step 574000
Ar -1.496152e+00 0.000000e+00 0.000000e+00
1
Step 575000
Ar -1.467881e+00 0.000000e+00 0.000000e+00
1
Step 576000
Ar -8.264417e-01 0.000000e+00 0.000000e+00
1
Step 577000
Ar -7.655878e-01 0.000000e+00 0.000000e+00
1
Step 578000
Ar -8.099482e-01 0.000000e+00 0.000000e+00
1
Step 579000
Ar -8.110757e-01 0.000000e+00 0.000000e+00
1
Step 580000
Ar -4.015000e-01 0.000000e+00 0.000000e+00
1
Step 581000
Ar -4.670704e-01 0.000000e+00 0.000000e+00
1
Step 582000
Ar -4.694356e-01 0.000000e+00 0.000000e+00
1
Step 583000
Ar -4.672053e-01 0.000000e+00 0.000000e+00
1
Step 584000
Ar -4.729694e-01 0.000000e+00 0.000000e+00
1
Step 585000
Ar -4.693547e-01 0.000000e+00 0.000000e+00
1
Step 586000
Ar -4.247197e-01 0.000000e+00 0.000000e+00
1
Step 587000
Ar -4.218751e-01 0.000000e+00 0.000000e+00
1
Step 588000
Ar -4.369597e-01 0.000000e+00 0.000000e+00
1
Step 589000
Ar -4.341094e-01 0.000000e+00 0.000000e+00
1
Step 590000
Ar -4.406108e-01 0.000000e+00 0.000000e+00
1
Step 591000
Ar -9.514398e-01 0.000000e+00 0.000000e+00
1
Step 592000
Ar -9.829672e-01 0.000000e+00 0.000000e+00
1
Step 593000
Ar -9.836739e-01 0.000000e+00 0.000000e+00
1
Step 594000
Ar -1.115804e+00 0.000000e+00 0.000000e+00
1
Step 595000
Ar -1.138365e+00 0.000000e+00 0.000000e+00
1
Step 596000
Ar -1.172032e+00 0.000000e+00 0.000000e+00
1
Step 597000
Ar -1.188832e+00 0.000000e+00 0.000000e+00
1
Step 598000
Ar -1.219328e+00 0.000000e+00 0.000000e+00
1
Step 599000
Ar -7.789851e-01 0.000000e+00 0.000000e+00
1
Step 600000
Ar -8.088344e-01 0.000000e+00 0.000000e+00
1
Step 601000
Ar -1.332097e+00 0.000000e+00 0.000000e+00
1
Step 602000
Ar -1.330614e+00 0.000000e+00 0.000000e+00
1
Step 603000
Ar -1.334637e+00 0.000000e+00 0.000000e+00
1
Step 604000
Ar -1.331409e+00 0.000000e+00 0.000000e+00
1
Step 605000
Ar -1.332499e+00 0.000000e+00 0.000000e+00
1
Step 606000
Ar -1.118163e+00 0.000000e+00 0.000000e+00
1
Step 607000
Ar -1.004282e+00 0.000000e+00 0.000000e+00
1
Step 608000
Ar -9.852975e-01 0.000000e+00 0.000000e+00
1
Step 609000
Ar -2.825301e-01 0.000000e+00 0.000000e+00
1
Step 610000
Ar -2.965717e-01 0.000000e+00 0.000000e+00
1
Step 611000
Ar 4.779931e-01 0.000000e+00 0.000000e+00
1
Step 612000
Ar 4.831016e-01 0.000000e+00 0.000000e+00
1
Step 613000
Ar 3.224231e-01 0.000000e+00 0.000000e+00
1
Step 614000
Ar 2.583164e-01 0.000000e+00 0.000000e+00
1
Step 615000
Ar 4.322410e-01 0.000000e+00 0.000000e+00
1
Step 616000
Ar 3.572880e-01 0.000000e+00 0.000000e+00
1
Step 617000
Ar 2.869495e-01 0.000000e+00 0.000000e+00
1
Step 618000
Ar 1.700137e-01 0.000000e+00 0.000000e+00
1
Step 619000
Ar 1.320477e-01 0.000000e+00 0.000000e+00
1
Step 620000
Ar 3.684233e-01 0.000000e+00 0.000000e+00
1
Step 621000
Ar -1.966409e-01 0.000000e+00 0.000000e+00
1
Step 622000
Ar 3.359995e-01 0.000000e+00 0.000000e+00
1
Step 623000
Ar 2.141889e-01 0.000000e+00 0.000000e+00
1
Step 624000
Ar 2.011586e-01 0.000000e+00 0.000000e+00
1
Step 625000
Ar 2.766183e-01 0.000000e+00 0.000000e+00
1
Step 626000
Ar 3.546504e-01 0.000000e+00 0.000000e+00
1
Step 627000
Ar 3.089712e-01 0.000000e+00 0.000000e+00
1
Step 628000
Ar 3.173527e-01 0.000000e+00 0.000000e+00
1
Step 629000
Ar 3.319639e-01 0.000000e+00 0.000000e+00
1
Step 630000
Ar 3.065857e-01 0.000000e+00 0.000000e+00
1
Step 631000
Ar 3.442800e-01 0.000000e+00 0.000000e+00
1
Step 632000
Ar 3.492392e-01 0.000000e+00 0.000000e+00
1
Step 633000
Ar 3.425294e-01 0.000000e+00 0.000000e+00
1
Step 634000
Ar 3.286696e-01 0.000000e+00 0.000000e+00
1
Step 635000
Ar 3.459129e-01 0.000000e+00 0.000000e+00
1
Step 636000
Ar -1.316725e-01 0.000000e+00 0.000000e+00
1
Step 637000
Ar -1.911150e-01 0.000000e+00 0.000000e+00
1
Step 638000
Ar -1.665607e-01 0.000000e+00 0.000000e+00
1
Step 639000
Ar -9.486631e-02 0.000000e+00 0.000000e+00
1
Step 640000
Ar -2.042573e-01 0.000000e+00 0.000000e+00
1
Step 641000
Ar 2.439562e-01 0.000000e+00 0.000000e+00
1
Step 642000
Ar -1.114412e-01 0.000000e+00 0.000000e+00
1
Step 643000
Ar 1.492303e-01 0.000000e+00 0.000000e+00
1
Step 644000
Ar 3.150175e-02 0.000000e+00 0.000000e+00
1
Step 645000
Ar 3.114487e-02 0.000000e+00 0.000000e+00
1
Step 646000
Ar -7.437678e-02 0.000000e+00 0.000000e+00
1
Step 647000
Ar -1.052647e-01 0.000000e+00 0.000000e+00
1
Step 648000