1
Step 0
Ar 4.991885e+00 0.000000e+00 0.000000e+00
1
Step 1000
Ar 4.420990e+00 0.000000e+00 0.000000e+00
1
Step 2000
Ar 3.048709e+00 0.000000e+00 0.000000e+00
1
Step 3000
Ar 1.123794e+00 0.000000e+00 0.000000e+00
1
Step 4000
Ar -1.004829e+00 0.000000e+00 0.000000e+00
1
Step 5000
Ar -2.951308e+00 0.000000e+00 0.000000e+00
1
Step 6000
Ar -4.362809e+00 0.000000e+00 0.000000e+00
1
Step 7000
Ar -4.983471e+00 0.000000e+00 0.000000e+00
1
Step 8000
Ar -4.700787e+00 0.000000e+00 0.000000e+00
1
Step 9000
Ar -3.566000e+00 0.000000e+00 0.000000e+00
1
Step 10000
Ar -1.784810e+00 0.000000e+00 0.000000e+00
1
Step 11000
Ar 3.199100e-01 0.000000e+00 0.000000e+00
1
Step 12000
Ar 2.366640e+00 0.000000e+00 0.000000e+00
1
Step 13000
Ar 3.984373e+00 0.000000e+00 0.000000e+00
1
Step 14000
Ar 4.879866e+00 0.000000e+00 0.000000e+00
1
Step 15000
Ar 4.890793e+00 0.000000e+00 0.000000e+00
1
Step 16000
Ar 4.015175e+00 0.000000e+00 0.000000e+00
1
Step 17000
Ar 2.411732e+00 0.000000e+00 0.000000e+00
1
Step 18000
Ar 3.711193e-01 0.000000e+00 0.000000e+00
1
Step 19000
Ar -1.736766e+00 0.000000e+00 0.000000e+00
1
Step 20000
Ar -3.529831e+00 0.000000e+00 0.000000e+00
1
Step 21000
Ar -4.683049e+00 0.000000e+00 0.000000e+00
1
Step 22000
Ar -4.987378e+00 0.000000e+00 0.000000e+00
1
Step 23000
Ar -4.387655e+00 0.000000e+00 0.000000e+00
1
Step 24000
Ar -2.992588e+00 0.000000e+00 0.000000e+00
1
Step 25000
Ar -1.055060e+00 0.000000e+00 0.000000e+00
1
Step 26000
Ar 1.073717e+00 0.000000e+00 0.000000e+00
1
Step 27000
Ar 3.007863e+00 0.000000e+00 0.000000e+00
1
Step 28000
Ar 4.396779e+00 0.000000e+00 0.000000e+00
1
Step 29000
Ar 4.988698e+00 0.000000e+00 0.000000e+00
1
Step 30000
Ar 4.676324e+00 0.000000e+00 0.000000e+00
1
Step 31000
Ar 3.516281e+00 0.000000e+00 0.000000e+00
1
Step 32000
Ar 1.718847e+00 0.000000e+00 0.000000e+00
1
Step 33000
Ar -3.901591e-01 0.000000e+00 0.000000e+00
1
Step 34000
Ar -2.428442e+00 0.000000e+00 0.000000e+00
1
Step 35000
Ar -4.026525e+00 0.000000e+00 0.000000e+00
1
Step 36000
Ar -4.894727e+00 0.000000e+00 0.000000e+00
1
Step 37000
Ar -4.875670e+00 0.000000e+00 0.000000e+00
1
Step 38000
Ar -3.972808e+00 0.000000e+00 0.000000e+00
1
Step 39000
Ar -2.349802e+00 0.000000e+00 0.000000e+00
1
Step 40000
Ar -3.008517e-01 0.000000e+00 0.000000e+00
1
Step 41000
Ar 1.802634e+00 0.000000e+00 0.000000e+00
1
Step 42000
Ar 3.579359e+00 0.000000e+00 0.000000e+00
1
Step 43000
Ar 4.707259e+00 0.000000e+00 0.000000e+00
1
Step 44000
Ar 4.981883e+00 0.000000e+00 0.000000e+00
1
Step 45000
Ar 4.353449e+00 0.000000e+00 0.000000e+00
1
Step 46000
Ar 2.935873e+00 0.000000e+00 0.000000e+00
1
Step 47000
Ar 9.861157e-01 0.000000e+00 0.000000e+00
1
Step 48000
Ar -1.142393e+00 0.000000e+00 0.000000e+00
1
Step 49000
Ar -3.063822e+00 0.000000e+00 0.000000e+00
1
Step 50000
Ar -4.429877e+00 0.000000e+00 0.000000e+00
1
Step 51000
Ar -4.992936e+00 0.000000e+00 0.000000e+00
1
Step 52000
Ar -4.650933e+00 0.000000e+00 0.000000e+00
1
Step 53000
Ar -3.465864e+00 0.000000e+00 0.000000e+00
1
Step 54000
Ar -1.652544e+00 0.000000e+00 0.000000e+00
1
Step 55000
Ar 4.603307e-01 0.000000e+00 0.000000e+00
1
Step 56000
Ar 2.489762e+00 0.000000e+00 0.000000e+00
1
Step 57000
Ar 4.067878e+00 0.000000e+00 0.000000e+00
1
Step 58000
Ar 4.908616e+00 0.000000e+00 0.000000e+00
1
Step 59000
Ar 4.859578e+00 0.000000e+00 0.000000e+00
1
Step 60000
Ar 3.929653e+00 0.000000e+00 0.000000e+00
1
Step 61000
Ar 2.287406e+00 0.000000e+00 0.000000e+00
1
Step 62000
Ar 2.305243e-01 0.000000e+00 0.000000e+00
1
Step 63000
Ar -1.868144e+00 0.000000e+00 0.000000e+00
1
Step 64000
Ar -3.628177e+00 0.000000e+00 0.000000e+00
1
Step 65000
Ar -4.730536e+00 0.000000e+00 0.000000e+00
1
Step 66000
Ar -4.975399e+00 0.000000e+00 0.000000e+00
1
Step 67000
Ar -4.318380e+00 0.000000e+00 0.000000e+00
1
Step 68000
Ar -2.878575e+00 0.000000e+00 0.000000e+00
1
Step 69000
Ar -9.169761e-01 0.000000e+00 0.000000e+00
1
Step 70000
Ar 1.210842e+00 0.000000e+00 0.000000e+00
1
Step 71000
Ar 3.119172e+00 0.000000e+00 0.000000e+00
1
Step 72000
Ar 4.462096e+00 0.000000e+00 0.000000e+00
1
Step 73000
Ar 4.996183e+00 0.000000e+00 0.000000e+00
1
Step 74000
Ar 4.624620e+00 0.000000e+00 0.000000e+00
1
Step 75000
Ar 3.414760e+00 0.000000e+00 0.000000e+00
1
Step 76000
Ar 1.585912e+00 0.000000e+00 0.000000e+00
1
Step 77000
Ar -5.304110e-01 0.000000e+00 0.000000e+00
1
Step 78000
Ar -2.550588e+00 0.000000e+00 0.000000e+00
1
Step 79000
Ar -4.108424e+00 0.000000e+00 0.000000e+00
1
Step 80000
Ar -4.921532e+00 0.000000e+00 0.000000e+00
1
Step 81000
Ar -4.842523e+00 0.000000e+00 0.000000e+00
1
Step 82000
Ar -3.885718e+00 0.000000e+00 0.000000e+00
1
Step 83000
Ar -2.224555e+00 0.000000e+00 0.000000e+00
1
Step 84000
Ar -1.601513e-01 0.000000e+00 0.000000e+00
1
Step 85000
Ar 1.933283e+00 0.000000e+00 0.000000e+00
1
Step 86000
Ar 3.676275e+00 0.000000e+00 0.000000e+00
1
Step 87000
Ar 4.752874e+00 0.000000e+00 0.000000e+00
1
Step 88000
Ar 4.967928e+00 0.000000e+00 0.000000e+00
1
Step 89000
Ar 4.282454e+00 0.000000e+00 0.000000e+00
1
Step 90000
Ar 2.820707e+00 0.000000e+00 0.000000e+00
1
Step 91000
Ar 8.476545e-01 0.000000e+00 0.000000e+00
1
Step 92000
Ar -1.279050e+00 0.000000e+00 0.000000e+00
1
Step 93000
Ar -3.173904e+00 0.000000e+00 0.000000e+00
1
Step 94000
Ar -4.493430e+00 0.000000e+00 0.000000e+00
1
Step 95000
Ar -4.998438e+00 0.000000e+00 0.000000e+00
1
Step 96000
Ar -4.597389e+00 0.000000e+00 0.000000e+00
1
Step 97000
Ar -3.362978e+00 0.000000e+00 0.000000e+00
1
Step 98000
Ar -1.518966e+00 0.000000e+00 0.000000e+00
1
Step 99000
Ar 6.003861e-01 0.000000e+00 0.000000e+00
