1
Step 120000
Ar 9.927449e-01 0.000000e+00 0.000000e+00
1
Step 121000
Ar 1.133481e+00 0.000000e+00 0.000000e+00
1
Step 122000
Ar 8.674327e-01 0.000000e+00 0.000000e+00
1
Step 123000
Ar 1.086262e+00 0.000000e+00 0.000000e+00
1
Step 124000
Ar 8.128348e-01 0.000000e+00 0.000000e+00
1
Step 125000
Ar 1.061567e+00 0.000000e+00 0.000000e+00
1
Step 126000
Ar 1.233490e+00 0.000000e+00 0.000000e+00
1
Step 127000
Ar 1.169522e+00 0.000000e+00 0.000000e+00
1
Step 128000
Ar 1.093426e+00 0.000000e+00 0.000000e+00
1
Step 129000
Ar 1.092916e+00 0.000000e+00 0.000000e+00
1
Step 130000
Ar 1.083446e+00 0.000000e+00 0.000000e+00
1
Step 131000
Ar 1.199653e+00 0.000000e+00 0.000000e+00
1
Step 132000
Ar 1.169886e+00 0.000000e+00 0.000000e+00
1
Step 133000
Ar 1.100130e+00 0.000000e+00 0.000000e+00
1
Step 134000
Ar 1.138743e+00 0.000000e+00 0.000000e+00
1
Step 135000
Ar 1.152777e+00 0.000000e+00 0.000000e+00
1
Step 136000
Ar 1.109136e+00 0.000000e+00 0.000000e+00
1
Step 137000
Ar 1.135588e+00 0.000000e+00 0.000000e+00
1
Step 138000
Ar 1.117051e+00 0.000000e+00 0.000000e+00
1
Step 139000
Ar 1.126363e+00 0.000000e+00 0.000000e+00
1
Step 140000
Ar 1.115404e+00 0.000000e+00 0.000000e+00
1
Step 141000
Ar 1.129190e+00 0.000000e+00 0.000000e+00
1
Step 142000
Ar 1.135246e+00 0.000000e+00 0.000000e+00
1
Step 143000
Ar 1.135137e+00 0.000000e+00 0.000000e+00
1
Step 144000
Ar 1.125635e+00 0.000000e+00 0.000000e+00
1
Step 145000
Ar 1.129903e+00 0.000000e+00 0.000000e+00
1
Step 146000
Ar 1.225052e+00 0.000000e+00 0.000000e+00
1
Step 147000
Ar 1.216332e+00 0.000000e+00 0.000000e+00
1
Step 148000
Ar 1.185231e+00 0.000000e+00 0.000000e+00
1
Step 149000
Ar 1.183291e+00 0.000000e+00 0.000000e+00
1
Step 150000
Ar 1.168670e+00 0.000000e+00 0.000000e+00
1
Step 151000
Ar 1.159380e+00 0.000000e+00 0.000000e+00
1
Step 152000
Ar 1.197452e+00 0.000000e+00 0.000000e+00
1
Step 153000
Ar 1.258305e+00 0.000000e+00 0.000000e+00
1
Step 154000
Ar 1.197575e+00 0.000000e+00 0.000000e+00
1
Step 155000
Ar 1.181339e+00 0.000000e+00 0.000000e+00
1
Step 156000
Ar 9.402554e-01 0.000000e+00 0.000000e+00
1
Step 157000
Ar 8.582281e-01 0.000000e+00 0.000000e+00
1
Step 158000
Ar 1.016433e+00 0.000000e+00 0.000000e+00
1
Step 159000
Ar 1.001916e+00 0.000000e+00 0.000000e+00
1
Step 160000
Ar 9.699649e-01 0.000000e+00 0.000000e+00
1
Step 161000
Ar 1.031264e+00 0.000000e+00 0.000000e+00
1
Step 162000
Ar 9.958261e-01 0.000000e+00 0.000000e+00
1
Step 163000
Ar 1.003033e+00 0.000000e+00 0.000000e+00
1
Step 164000
Ar 1.032640e+00 0.000000e+00 0.000000e+00
1
Step 165000
Ar 9.940829e-01 0.000000e+00 0.000000e+00
1
Step 166000
Ar 1.013318e+00 0.000000e+00 0.000000e+00
1
Step 167000
Ar 1.048564e+00 0.000000e+00 0.000000e+00
1
Step 168000
Ar 1.026958e+00 0.000000e+00 0.000000e+00
1
Step 169000
Ar 1.007207e+00 0.000000e+00 0.000000e+00
1
Step 170000
Ar 1.034782e+00 0.000000e+00 0.000000e+00
1
Step 171000
Ar 1.047191e+00 0.000000e+00 0.000000e+00
1
Step 172000
Ar 1.042435e+00 0.000000e+00 0.000000e+00
1
Step 173000
Ar 1.049412e+00 0.000000e+00 0.000000e+00
1
Step 174000
Ar 1.048662e+00 0.000000e+00 0.000000e+00
1
Step 175000
Ar 1.047565e+00 0.000000e+00 0.000000e+00
1
Step 176000
Ar 1.068660e+00 0.000000e+00 0.000000e+00
1
Step 177000
Ar 1.071164e+00 0.000000e+00 0.000000e+00
1
Step 178000
Ar 1.073879e+00 0.000000e+00 0.000000e+00
1
Step 179000
Ar 1.073936e+00 0.000000e+00 0.000000e+00
1
Step 180000
Ar 1.072825e+00 0.000000e+00 0.000000e+00
1
Step 181000
Ar 1.009644e+00 0.000000e+00 0.000000e+00
1
Step 182000
Ar 1.010620e+00 0.000000e+00 0.000000e+00
1
Step 183000
Ar 1.007919e+00 0.000000e+00 0.000000e+00
1
Step 184000
Ar 1.017960e+00 0.000000e+00 0.000000e+00
1
Step 185000
Ar 1.007843e+00 0.000000e+00 0.000000e+00
1
Step 186000
Ar 9.835761e-01 0.000000e+00 0.000000e+00
1
Step 187000
Ar 9.797257e-01 0.000000e+00 0.000000e+00
1
Step 188000
Ar 9.829294e-01 0.000000e+00 0.000000e+00
1
Step 189000
Ar 9.842527e-01 0.000000e+00 0.000000e+00
1
Step 190000
Ar 9.793246e-01 0.000000e+00 0.000000e+00
1
Step 191000
Ar 9.298001e-01 0.000000e+00 0.000000e+00
1
Step 192000
Ar 8.823852e-01 0.000000e+00 0.000000e+00
1
Step 193000
Ar 9.539418e-01 0.000000e+00 0.000000e+00
1
Step 194000
Ar 5.123335e-01 0.000000e+00 0.000000e+00
1
Step 195000
Ar 5.992739e-01 0.000000e+00 0.000000e+00
1
Step 196000
Ar 4.346420e-01 0.000000e+00 0.000000e+00
1
Step 197000
Ar 4.206561e-01 0.000000e+00 0.000000e+00
1
Step 198000
Ar 5.004347e-01 0.000000e+00 0.000000e+00
1
Step 199000
Ar 5.825890e-01 0.000000e+00 0.000000e+00
1
Step 200000
Ar 5.648989e-01 0.000000e+00 0.000000e+00
1
Step 201000
Ar 5.826914e-01 0.000000e+00 0.000000e+00
1
Step 202000
Ar 5.897882e-01 0.000000e+00 0.000000e+00
1
Step 203000
Ar 5.821583e-01 0.000000e+00 0.000000e+00
1
Step 204000
Ar 5.761160e-01 0.000000e+00 0.000000e+00
1
Step 205000
Ar 5.773485e-01 0.000000e+00 0.000000e+00
1
Step 206000
Ar 9.405274e-01 0.000000e+00 0.000000e+00
1
Step 207000
Ar 8.690506e-01 0.000000e+00 0.000000e+00
1
Step 208000
Ar 9.193586e-01 0.000000e+00 0.000000e+00
1
Step 209000
Ar 9.451755e-01 0.000000e+00 0.000000e+00
1
Step 210000
Ar 8.871648e-01 0.000000e+00 0.000000e+00
1
Step 211000
Ar 8.175830e-01 0.000000e+00 0.000000e+00
1
Step 212000
Ar 8.556874e-01 0.000000e+00 0.000000e+00
1
Step 213000
Ar 8.492503e-01 0.000000e+00 0.000000e+00
1
Step 214000
Ar 7.278120e-01 0.000000e+00 0.000000e+00
1
Step 215000
Ar 6.954057e-01 0.000000e+00 0.000000e+00
1
Step 216000
Ar 6.464675e-01 0.000000e+00 0.000000e+00
1
Step 217000
Ar 6.185855e-01 0.000000e+00 0.000000e+00
1
Step 218000
Ar 6.226458e-01 0.000000e+00 0.000000e+00
1
Step 219000
Ar 6.589562e-01 0.000000e+00 0.000000e+00
1
Step 220000
Ar 6.427834e-01 0.000000e+00 0.000000e+00
1
Step 221000
Ar 6.328647e-01 0.000000e+00 0.000000e+00
1
Step 222000
Ar 6.252266e-01 0.000000e+00 0.000000e+00
1
Step 223000
Ar 6.141869e-01 0.000000e+00 0.000000e+00
1
Step 224000
Ar 6.296694e-01 0.000000e+00 0.000000e+00
1
Step 225000
Ar 6.198661e-01 0.000000e+00 0.000000e+00
1
Step 226000
Ar 1.138519e+00 0.000000e+00 0.000000e+00
1
Step 227000
Ar 1.138850e+00 0.000000e+00 0.000000e+00
1
Step 228000
Ar 1.137879e+00 0.000000e+00 0.000000e+00
1
Step 229000
Ar 1.141294e+00 0.000000e+00 0.000000e+00
1
Step 230000
Ar 1.139050e+00 0.000000e+00 0.000000e+00
1
Step 231000
Ar 1.235878e+00 0.000000e+00 0.000000e+00
1
Step 232000
Ar 1.207631e+00 0.000000e+00 0.000000e+00
1
Step 233000
Ar 1.228755e+00 0.000000e+00 0.000000e+00
1
Step 234000
Ar 1.206448e+00 0.000000e+00 0.000000e+00
1
Step 235000
Ar 1.235519e+00 0.000000e+00 0.000000e+00
1
Step 236000
Ar 1.279062e+00 0.000000e+00 0.000000e+00
1
Step 237000
Ar 1.318289e+00 0.000000e+00 0.000000e+00
1
Step 238000
Ar 1.274587e+00 0.000000e+00 0.000000e+00
1
Step 239000
Ar 1.258389e+00 0.000000e+00 0.000000e+00
1
Step 240000
Ar 1.251303e+00 0.000000e+00 0.000000e+00
1
Step 241000
Ar 1.198278e+00 0.000000e+00 0.000000e+00
1
Step 242000
Ar 1.214541e+00 0.000000e+00 0.000000e+00
1
Step 243000
Ar 1.215521e+00 0.000000e+00 0.000000e+00
1
Step 244000
Ar 1.222754e+00 0.000000e+00 0.000000e+00
1
Step 245000
Ar 1.198060e+00 0.000000e+00 0.000000e+00
1
Step 246000
Ar 1.211876e+00 0.000000e+00 0.000000e+00
1
Step 247000
Ar 1.223767e+00 0.000000e+00 0.000000e+00
1
Step 248000
Ar 1.218174e+00 0.000000e+00 0.000000e+00
1
Step 249000
Ar 1.215944e+00 0.000000e+00 0.000000e+00
1
Step 250000
Ar 1.217303e+00 0.000000e+00 0.000000e+00
1
Step 251000
Ar 1.269352e+00 0.000000e+00 0.000000e+00
1
Step 252000
Ar 1.334175e+00 0.000000e+00 0.000000e+00
1
Step 253000
Ar 1.361457e+00 0.000000e+00 0.000000e+00
1
Step 254000
Ar 1.311447e+00 0.000000e+00 0.000000e+00
1
Step 255000
Ar 1.263391e+00 0.000000e+00 0.000000e+00
1
Step 256000
Ar 1.341189e+00 0.000000e+00 0.000000e+00
1
Step 257000
Ar 1.300541e+00 0.000000e+00 0.000000e+00
1
Step 258000
Ar 1.276969e+00 0.000000e+00 0.000000e+00
1
Step 259000
Ar 1.305168e+00 0.000000e+00 0.000000e+00
1
Step 260000
Ar 1.347853e+00 0.000000e+00 0.000000e+00
1
Step 261000
Ar 8.364384e-01 0.000000e+00 0.000000e+00
1
Step 262000
Ar 7.238000e-01 0.000000e+00 0.000000e+00
1
Step 263000
Ar 8.594936e-01 0.000000e+00 0.000000e+00
1
Step 264000
Ar 7.972897e-01 0.000000e+00 0.000000e+00
1
Step 265000
Ar 7.762258e-01 0.000000e+00 0.000000e+00
1
Step 266000
Ar 8.558733e-01 0.000000e+00 0.000000e+00
1
Step 267000
Ar 8.457678e-01 0.000000e+00 0.000000e+00
1
Step 268000
Ar 8.491928e-01 0.000000e+00 0.000000e+00
1
Step 269000
Ar 8.533113e-01 0.000000e+00 0.000000e+00
1
Step 270000
Ar 8.155438e-01 0.000000e+00 0.000000e+00
1
Step 271000
Ar 1.020525e+00 0.000000e+00 0.000000e+00
1
Step 272000
Ar 1.021062e+00 0.000000e+00 0.000000e+00
1
Step 273000
Ar 1.023126e+00 0.000000e+00 0.000000e+00
1
Step 274000
Ar 1.016473e+00 0.000000e+00 0.000000e+00
1
Step 275000
Ar 1.020543e+00 0.000000e+00 0.000000e+00
1
Step 276000
Ar 1.277226e+00 0.000000e+00 0.000000e+00
1
Step 277000
Ar 1.299977e+00 0.000000e+00 0.000000e+00
1
Step 278000
Ar 1.281346e+00 0.000000e+00 0.000000e+00
1
Step 279000
Ar 1.285567e+00 0.000000e+00 0.000000e+00
1
Step 280000
Ar 1.316420e+00 0.000000e+00 0.000000e+00
1
Step 281000
Ar 1.282922e+00 0.000000e+00 0.000000e+00
1
Step 282000
Ar 1.277887e+00 0.000000e+00 0.000000e+00
1
Step 283000
Ar 1.296113e+00 0.000000e+00 0.000000e+00
1
Step 284000
Ar 1.287210e+00 0.000000e+00 0.000000e+00
1
Step 285000
Ar 1.286377e+00 0.000000e+00 0.000000e+00
1
Step 286000
Ar 1.301472e+00 0.000000e+00 0.000000e+00
1
Step 287000
Ar 1.297690e+00 0.000000e+00 0.000000e+00
1
Step 288000
Ar 1.292677e+00 0.000000e+00 0.000000e+00
1
Step 289000
Ar 1.300171e+00 0.000000e+00 0.000000e+00
1
Step 290000
Ar 1.300668e+00 0.000000e+00 0.000000e+00
1
Step 291000
Ar 1.274805e+00 0.000000e+00 0.000000e+00
1
Step 292000
Ar 1.273549e+00 0.000000e+00 0.000000e+00
1
Step 293000
Ar 1.276808e+00 0.000000e+00 0.000000e+00
1
Step 294000
Ar 1.276755e+00 0.000000e+00 0.000000e+00
1
Step 295000
Ar 1.274284e+00 0.000000e+00 0.000000e+00
1
Step 296000
Ar 9.029812e-01 0.000000e+00 0.000000e+00
1
Step 297000
Ar 9.386429e-01 0.000000e+00 0.000000e+00
1
Step 298000
Ar 9.289782e-01 0.000000e+00 0.000000e+00
1
Step 299000
Ar 9.372358e-01 0.000000e+00 0.000000e+00
1
Step 300000
Ar 9.281197e-01 0.000000e+00 0.000000e+00
1
Step 301000
Ar 9.068862e-01 0.000000e+00 0.000000e+00
1
Step 302000
Ar 9.128711e-01 0.000000e+00 0.000000e+00
1
Step 303000
Ar 9.063297e-01 0.000000e+00 0.000000e+00
1
Step 304000
Ar 9.065305e-01 0.000000e+00 0.000000e+00
1
Step 305000
Ar 9.001853e-01 0.000000e+00 0.000000e+00
1
Step 306000
Ar 8.492923e-01 0.000000e+00 0.000000e+00
1
Step 307000
Ar 8.596166e-01 0.000000e+00 0.000000e+00
1
Step 308000
Ar 8.652945e-01 0.000000e+00 0.000000e+00
1
Step 309000
Ar 8.501069e-01 0.000000e+00 0.000000e+00
1
Step 310000
Ar 8.475651e-01 0.000000e+00 0.000000e+00
1
Step 311000
Ar 8.588136e-01 0.000000e+00 0.000000e+00
1
Step 312000
Ar 8.660452e-01 0.000000e+00 0.000000e+00
1
Step 313000
Ar 8.648514e-01 0.000000e+00 0.000000e+00
1
Step 314000
Ar 8.638458e-01 0.000000e+00 0.000000e+00
1
Step 315000
Ar 8.620486e-01 0.000000e+00 0.000000e+00
1
Step 316000
Ar 8.745192e-01 0.000000e+00 0.000000e+00
1
Step 317000
Ar 8.721499e-01 0.000000e+00 0.000000e+00
1
Step 318000
Ar 8.720821e-01 0.000000e+00 0.000000e+00
1
Step 319000
Ar 8.744452e-01 0.000000e+00 0.000000e+00
1
Step 320000
Ar 8.781617e-01 0.000000e+00 0.000000e+00
1
Step 321000
Ar 8.677744e-01 0.000000e+00 0.000000e+00
1
Step 322000
Ar 7.974927e-01 0.000000e+00 0.000000e+00
1
Step 323000
Ar 7.968620e-01 0.000000e+00 0.000000e+00
1
Step 324000
Ar 7.960734e-01 0.000000e+00 0.000000e+00
1
Step 325000
Ar 7.931521e-01 0.000000e+00 0.000000e+00
1
Step 326000
Ar -7.550149e-01 0.000000e+00 0.000000e+00
1
Step 327000
Ar -1.122930e+00 0.000000e+00 0.000000e+00
1
Step 328000
Ar -8.871599e-01 0.000000e+00 0.000000e+00
1
Step 329000
Ar -1.071787e+00 0.000000e+00 0.000000e+00
1
Step 330000
Ar -9.534540e-01 0.000000e+00 0.000000e+00
1
Step 331000
Ar -8.884928e-01 0.000000e+00 0.000000e+00
1
Step 332000
Ar -9.282849e-01 0.000000e+00 0.000000e+00
1
Step 333000
Ar -7.470647e-01 0.000000e+00 0.000000e+00
1
Step 334000
Ar -7.803645e-01 0.000000e+00 0.000000e+00
1
Step 335000
Ar -9.227270e-01 0.000000e+00 0.000000e+00
1
Step 336000
Ar -7.121111e-01 0.000000e+00 0.000000e+00
1
Step 337000
Ar -8.164767e-01 0.000000e+00 0.000000e+00
1
Step 338000
Ar -7.834196e-01 0.000000e+00 0.000000e+00
1
Step 339000
Ar -9.068435e-01 0.000000e+00 0.000000e+00
1
Step 340000
Ar -8.662013e-01 0.000000e+00 0.000000e+00
1
Step 341000
Ar -6.890424e-01 0.000000e+00 0.000000e+00
1
Step 342000
Ar -7.506772e-01 0.000000e+00 0.000000e+00
1
Step 343000
Ar -7.337149e-01 0.000000e+00 0.000000e+00
1
Step 344000
Ar -7.649270e-01 0.000000e+00 0.000000e+00
1
Step 345000
Ar -8.274734e-01 0.000000e+00 0.000000e+00
1
Step 346000
Ar -8.426621e-01 0.000000e+00 0.000000e+00
1
Step 347000
Ar -8.542606e-01 0.000000e+00 0.000000e+00
1
Step 348000
Ar -8.406171e-01 0.000000e+00 0.000000e+00
1
Step 349000
Ar -8.498799e-01 0.000000e+00 0.000000e+00
1
Step 350000
Ar -8.410149e-01 0.000000e+00 0.000000e+00
1
Step 351000
Ar -8.520670e-01 0.000000e+00 0.000000e+00
1
Step 352000
Ar -8.496382e-01 0.000000e+00 0.000000e+00
1
Step 353000
Ar -8.490751e-01 0.000000e+00 0.000000e+00
1
Step 354000
Ar -8.572709e-01 0.000000e+00 0.000000e+00
1
Step 355000
Ar -8.542555e-01 0.000000e+00 0.000000e+00
1
Step 356000
Ar -1.079040e+00 0.000000e+00 0.000000e+00
1
Step 357000
Ar -1.099514e+00 0.000000e+00 0.000000e+00
1
Step 358000
Ar -1.144373e+00 0.000000e+00 0.000000e+00
1
Step 359000
Ar -1.078651e+00 0.000000e+00 0.000000e+00
1
Step 360000
Ar -1.080667e+00 0.000000e+00 0.000000e+00
1
Step 361000
Ar -7.448427e-01 0.000000e+00 0.000000e+00
1
Step 362000
Ar -7.359317e-01 0.000000e+00 0.000000e+00
1
Step 363000
Ar -8.129062e-01 0.000000e+00 0.000000e+00
1
Step 364000
Ar -8.116787e-01 0.000000e+00 0.000000e+00
1
Step 365000
Ar -7.614310e-01 0.000000e+00 0.000000e+00
1
Step 366000
Ar -7.132728e-01 0.000000e+00 0.000000e+00
1
Step 367000
Ar -4.712247e-01 0.000000e+00 0.000000e+00
1
Step 368000
Ar -7.338725e-01 0.000000e+00 0.000000e+00
1
Step 369000
Ar -7.338581e-01 0.000000e+00 0.000000e+00
1
Step 370000
Ar -6.667685e-01 0.000000e+00 0.000000e+00
1
Step 371000
Ar -6.374429e-01 0.000000e+00 0.000000e+00
1
Step 372000
Ar -6.548312e-01 0.000000e+00 0.000000e+00
1
Step 373000
Ar -6.139062e-01 0.000000e+00 0.000000e+00
1
Step 374000
Ar -5.912399e-01 0.000000e+00 0.000000e+00
1
Step 375000
Ar -3.593839e-01 0.000000e+00 0.000000e+00
1
Step 376000
Ar -3.370922e-01 0.000000e+00 0.000000e+00
1
Step 377000
Ar 5.259142e-01 0.000000e+00 0.000000e+00
1
Step 378000
Ar 4.709505e-01 0.000000e+00 0.000000e+00
1
Step 379000
Ar 3.538774e-01 0.000000e+00 0.000000e+00
1
Step 380000
Ar 2.760133e-02 0.000000e+00 0.000000e+00
1
Step 381000
Ar 4.838713e-01 0.000000e+00 0.000000e+00
1
Step 382000
Ar 5.448229e-01 0.000000e+00 0.000000e+00
1
Step 383000
Ar 5.434689e-01 0.000000e+00 0.000000e+00
1
Step 384000
Ar 5.237944e-01 0.000000e+00 0.000000e+00
1
Step 385000
Ar 5.314177e-01 0.000000e+00 0.000000e+00
1
Step 386000
Ar 7.314693e-01 0.000000e+00 0.000000e+00
1
Step 387000
Ar 7.529047e-01 0.000000e+00 0.000000e+00
1
Step 388000
Ar 7.636985e-01 0.000000e+00 0.000000e+00
1
Step 389000
Ar 7.258146e-01 0.000000e+00 0.000000e+00
1
Step 390000
Ar 7.601125e-01 0.000000e+00 0.000000e+00
1
Step 391000
Ar 7.329781e-01 0.000000e+00 0.000000e+00
1
Step 392000
Ar 7.403284e-01 0.000000e+00 0.000000e+00
1
Step 393000
Ar 7.151976e-01 0.000000e+00 0.000000e+00
1
Step 394000
Ar 7.343005e-01 0.000000e+00 0.000000e+00
1
Step 395000
Ar 7.338290e-01 0.000000e+00 0.000000e+00
1
Step 396000
Ar 7.127934e-01 0.000000e+00 0.000000e+00
1
Step 397000
Ar 7.089562e-01 0.000000e+00 0.000000e+00
1
Step 398000
Ar 7.140468e-01 0.000000e+00 0.000000e+00
1
Step 399000
Ar 7.131298e-01 0.000000e+00 0.000000e+00
1
Step 400000
Ar 7.109314e-01 0.000000e+00 0.000000e+00
1
Step 401000
Ar 1.329873e+00 0.000000e+00 0.000000e+00
1
Step 402000
Ar 1.336818e+00 0.000000e+00 0.000000e+00
1
Step 403000
Ar 1.331275e+00 0.000000e+00 0.000000e+00
1
Step 404000
Ar 1.331678e+00 0.000000e+00 0.000000e+00
1
Step 405000
Ar 1.328580e+00 0.000000e+00 0.000000e+00
1
Step 406000
Ar 1.366125e+00 0.000000e+00 0.000000e+00
1
Step 407000
Ar 1.374755e+00 0.000000e+00 0.000000e+00
1
Step 408000
Ar 1.374652e+00 0.000000e+00 0.000000e+00
1
Step 409000
Ar 1.375838e+00 0.000000e+00 0.000000e+00
1
Step 410000
Ar 1.396587e+00 0.000000e+00 0.000000e+00
1
Step 411000
Ar 1.342279e+00 0.000000e+00 0.000000e+00
1
Step 412000
Ar 1.381006e+00 0.000000e+00 0.000000e+00
1
Step 413000
Ar 1.371567e+00 0.000000e+00 0.000000e+00
1
Step 414000
Ar 1.373700e+00 0.000000e+00 0.000000e+00
1
Step 415000
Ar 1.378755e+00 0.000000e+00 0.000000e+00
1
Step 416000
Ar 9.117111e-01 0.000000e+00 0.000000e+00
1
Step 417000
Ar 9.141733e-01 0.000000e+00 0.000000e+00
1
Step 418000
Ar 9.171044e-01 0.000000e+00 0.000000e+00
1
Step 419000
Ar 9.150553e-01 0.000000e+00 0.000000e+00
1
Step 420000
Ar 9.125518e-01 0.000000e+00 0.000000e+00
1
Step 421000
Ar 9.522825e-01 0.000000e+00 0.000000e+00
1
Step 422000
Ar 9.555113e-01 0.000000e+00 0.000000e+00
1
Step 423000
Ar 9.508864e-01 0.000000e+00 0.000000e+00
1
Step 424000
Ar 9.529234e-01 0.000000e+00 0.000000e+00
1
Step 425000
Ar 9.482431e-01 0.000000e+00 0.000000e+00
1
Step 426000
Ar 7.496268e-01 0.000000e+00 0.000000e+00
1
Step 427000
Ar 7.481182e-01 0.000000e+00 0.000000e+00
1
Step 428000
Ar 7.520337e-01 0.000000e+00 0.000000e+00
1
Step 429000
Ar 7.459957e-01 0.000000e+00 0.000000e+00
1
Step 430000
Ar 7.449807e-01 0.000000e+00 0.000000e+00
1
Step 431000
Ar 1.361182e+00 0.000000e+00 0.000000e+00
1
Step 432000
Ar 1.365789e+00 0.000000e+00 0.000000e+00
1
Step 433000
Ar 1.363291e+00 0.000000e+00 0.000000e+00
1
Step 434000
Ar 1.360940e+00 0.000000e+00 0.000000e+00
1
Step 435000
Ar 1.358512e+00 0.000000e+00 0.000000e+00
1
Step 436000
Ar 4.829658e-01 0.000000e+00 0.000000e+00
1
Step 437000
Ar 5.088361e-01 0.000000e+00 0.000000e+00
1
Step 438000
Ar 5.001514e-01 0.000000e+00 0.000000e+00
1
Step 439000
Ar 3.029929e-01 0.000000e+00 0.000000e+00
1
Step 440000
Ar 4.998307e-01 0.000000e+00 0.000000e+00
1
Step 441000
Ar 5.128048e-01 0.000000e+00 0.000000e+00
1
Step 442000
Ar 5.210838e-01 0.000000e+00 0.000000e+00
1
Step 443000
Ar 5.201893e-01 0.000000e+00 0.000000e+00
1
Step 444000
Ar 5.168901e-01 0.000000e+00 0.000000e+00
1
Step 445000
Ar 5.160517e-01 0.000000e+00 0.000000e+00
1
Step 446000
Ar 5.445478e-01 0.000000e+00 0.000000e+00
1
Step 447000
Ar 5.486494e-01 0.000000e+00 0.000000e+00
1
Step 448000
Ar 5.537565e-01 0.000000e+00 0.000000e+00
1
Step 449000
Ar 5.472172e-01 0.000000e+00 0.000000e+00
1
Step 450000
Ar 5.480028e-01 0.000000e+00 0.000000e+00
1
Step 451000
Ar 5.368374e-01 0.000000e+00 0.000000e+00
1
Step 452000
Ar 5.835013e-01 0.000000e+00 0.000000e+00
1
Step 453000
Ar 5.855676e-01 0.000000e+00 0.000000e+00
1
Step 454000
Ar 5.866744e-01 0.000000e+00 0.000000e+00
1
Step 455000
Ar 5.878973e-01 0.000000e+00 0.000000e+00
1
Step 456000
Ar 4.436709e-01 0.000000e+00 0.000000e+00
1
Step 457000
Ar 4.121470e-01 0.000000e+00 0.000000e+00
1
Step 458000
Ar 3.274583e-01 0.000000e+00 0.000000e+00
1
Step 459000
Ar 4.865194e-01 0.000000e+00 0.000000e+00
1
Step 460000
Ar 4.690130e-01 0.000000e+00 0.000000e+00
1
Step 461000
Ar 4.043234e-01 0.000000e+00 0.000000e+00
1
Step 462000
Ar 4.373953e-01 0.000000e+00 0.000000e+00
1
Step 463000
Ar 4.239733e-01 0.000000e+00 0.000000e+00
1
Step 464000
Ar 3.449956e-01 0.000000e+00 0.000000e+00
1
Step 465000
Ar 3.695553e-01 0.000000e+00 0.000000e+00
1
Step 466000
Ar 1.810301e-01 0.000000e+00 0.000000e+00
1
Step 467000
Ar 1.356690e-01 0.000000e+00 0.000000e+00
1
Step 468000
Ar 1.695439e-01 0.000000e+00 0.000000e+00
1
Step 469000
Ar 3.553207e-01 0.000000e+00 0.000000e+00
1
Step 470000
Ar 2.706760e-01 0.000000e+00 0.000000e+00
1
Step 471000
Ar 3.269408e-01 0.000000e+00 0.000000e+00
1
Step 472000
Ar 2.952616e-01 0.000000e+00 0.000000e+00
1
Step 473000
Ar 3.070266e-01 0.000000e+00 0.000000e+00
1
Step 474000
Ar 3.508811e-01 0.000000e+00 0.000000e+00
1
Step 475000
Ar 3.197977e-01 0.000000e+00 0.000000e+00
1
Step 476000
Ar 1.170065e-01 0.000000e+00 0.000000e+00
1
Step 477000
Ar 8.575447e-02 0.000000e+00 0.000000e+00
1
Step 478000
Ar 1.157147e-01 0.000000e+00 0.000000e+00
1
Step 479000
Ar 1.874445e-01 0.000000e+00 0.000000e+00
1
Step 480000
Ar 2.105581e-01 0.000000e+00 0.000000e+00
1
Step 481000
Ar 3.914968e-02 0.000000e+00 0.000000e+00
1
Step 482000
Ar 1.490002e-01 0.000000e+00 0.000000e+00
1
Step 483000
Ar 1.791061e-01 0.000000e+00 0.000000e+00
1
Step 484000
Ar 4.619218e-02 0.000000e+00 0.000000e+00
1
Step 485000
Ar 4.431429e-02 0.000000e+00 0.000000e+00
1
Step 486000
Ar -3.111819e-01 0.000000e+00 0.000000e+00
1
Step 487000
Ar -4.469063e-02 0.000000e+00 0.000000e+00
1
Step 488000
Ar -3.196362e-01 0.000000e+00 0.000000e+00
1
Step 489000
Ar -3.436019e-01 0.000000e+00 0.000000e+00
1
Step 490000
Ar -2.080071e-01 0.000000e+00 0.000000e+00
1
Step 491000
Ar -3.076142e-01 0.000000e+00 0.000000e+00
1
Step 492000
Ar -2.435667e-01 0.000000e+00 0.000000e+00
1
Step 493000
Ar -2.757586e-01 0.000000e+00 0.000000e+00
1
Step 494000
Ar -2.961035e-01 0.000000e+00 0.000000e+00
1
Step 495000
Ar -3.053363e-01 0.000000e+00 0.000000e+00
1
Step 496000
Ar -2.855799e-01 0.000000e+00 0.000000e+00
1
Step 497000
Ar -2.758020e-01 0.000000e+00 0.000000e+00
1
Step 498000
Ar -2.744498e-01 0.000000e+00 0.000000e+00
1
Step 499000
Ar -2.815935e-01 0.000000e+00 0.000000e+00
1
Step 500000
Ar -2.681754e-01 0.000000e+00 0.000000e+00
1
Step 501000
Ar -3.272491e-01 0.000000e+00 0.000000e+00
1
Step 502000
Ar -3.248387e-01 0.000000e+00 0.000000e+00
1
Step 503000
Ar -3.248681e-01 0.000000e+00 0.000000e+00
1
Step 504000
Ar -3.201641e-01 0.000000e+00 0.000000e+00
1
Step 505000
Ar -3.332736e-01 0.000000e+00 0.000000e+00
1
Step 506000
Ar -3.422237e-01 0.000000e+00 0.000000e+00
1
Step 507000
Ar -3.471122e-01 0.000000e+00 0.000000e+00
1
Step 508000
Ar -3.434030e-01 0.000000e+00 0.000000e+00
1
Step 509000
Ar -3.412981e-01 0.000000e+00 0.000000e+00
1
Step 510000
Ar -3.442183e-01 0.000000e+00 0.000000e+00
1
Step 511000
Ar -5.007888e-01 0.000000e+00 0.000000e+00
1
Step 512000
Ar -6.369485e-01 0.000000e+00 0.000000e+00
1
Step 513000
Ar -5.379038e-01 0.000000e+00 0.000000e+00
1
Step 514000
Ar -5.587683e-01 0.000000e+00 0.000000e+00
1
Step 515000
Ar -4.913357e-01 0.000000e+00 0.000000e+00
1
Step 516000
Ar -5.090456e-01 0.000000e+00 0.000000e+00
1
Step 517000
Ar -6.460732e-01 0.000000e+00 0.000000e+00
1
Step 518000
Ar -6.043715e-01 0.000000e+00 0.000000e+00
1
Step 519000
Ar -6.018577e-01 0.000000e+00 0.000000e+00
1
Step 520000
Ar -5.856175e-01 0.000000e+00 0.000000e+00
1
Step 521000
Ar -5.504152e-01 0.000000e+00 0.000000e+00
1
Step 522000
Ar -5.269194e-01 0.000000e+00 0.000000e+00
1
Step 523000
Ar -5.714281e-01 0.000000e+00 0.000000e+00
1
Step 524000
Ar -5.084489e-01 0.000000e+00 0.000000e+00
1
Step 525000
Ar -5.464977e-01 0.000000e+00 0.000000e+00
1
Step 526000
Ar -6.104645e-01 0.000000e+00 0.000000e+00
1
Step 527000
Ar -6.277664e-01 0.000000e+00 0.000000e+00
1
Step 528000
Ar -6.072268e-01 0.000000e+00 0.000000e+00
1
Step 529000
Ar -6.396330e-01 0.000000e+00 0.000000e+00
1
Step 530000
Ar -6.493619e-01 0.000000e+00 0.000000e+00
1
Step 531000
Ar -6.032419e-01 0.000000e+00 0.000000e+00
1
Step 532000
Ar -6.083595e-01 0.000000e+00 0.000000e+00
1
Step 533000
Ar -6.155398e-01 0.000000e+00 0.000000e+00
1
Step 534000
Ar -6.047017e-01 0.000000e+00 0.000000e+00
1
Step 535000
Ar -5.947252e-01 0.000000e+00 0.000000e+00
1
Step 536000
Ar -6.222932e-01 0.000000e+00 0.000000e+00
1
Step 537000
Ar -6.190046e-01 0.000000e+00 0.000000e+00
1
Step 538000
Ar -6.336989e-01 0.000000e+00 0.000000e+00
1
Step 539000
Ar -6.049845e-01 0.000000e+00 0.000000e+00
1
Step 540000
Ar -6.223541e-01 0.000000e+00 0.000000e+00
1
Step 541000
Ar -6.388680e-01 0.000000e+00 0.000000e+00
1
Step 542000
Ar -6.266555e-01 0.000000e+00 0.000000e+00
1
Step 543000
Ar -6.373743e-01 0.000000e+00 0.000000e+00
1
Step 544000
Ar -6.384493e-01 0.000000e+00 0.000000e+00
1
Step 545000
Ar -6.337101e-01 0.000000e+00 0.000000e+00
1
Step 546000
Ar -9.087787e-01 0.000000e+00 0.000000e+00
1
Step 547000
Ar -9.007793e-01 0.000000e+00 0.000000e+00
1
Step 548000
Ar -8.868319e-01 0.000000e+00 0.000000e+00
1
Step 549000
Ar -8.794839e-01 0.000000e+00 0.000000e+00
1
Step 550000
Ar -8.854640e-01 0.000000e+00 0.000000e+00
1
Step 551000
Ar -8.957628e-01 0.000000e+00 0.000000e+00
1
Step 552000
Ar -9.003126e-01 0.000000e+00 0.000000e+00
1
Step 553000
Ar -9.010306e-01 0.000000e+00 0.000000e+00
1
Step 554000
Ar -9.125216e-01 0.000000e+00 0.000000e+00
1
Step 555000
Ar -9.087205e-01 0.000000e+00 0.000000e+00
1
Step 556000
Ar -8.951905e-01 0.000000e+00 0.000000e+00
1
Step 557000
Ar -8.981775e-01 0.000000e+00 0.000000e+00
1
Step 558000
Ar -8.959747e-01 0.000000e+00 0.000000e+00
1
Step 559000
Ar -8.993086e-01 0.000000e+00 0.000000e+00
1
Step 560000
Ar -8.983426e-01 0.000000e+00 0.000000e+00
1
Step 561000
Ar -7.089713e-01 0.000000e+00 0.000000e+00
1
Step 562000
Ar -7.449240e-01 0.000000e+00 0.000000e+00
1
Step 563000
Ar -6.981846e-01 0.000000e+00 0.000000e+00
1
Step 564000
Ar -7.494129e-01 0.000000e+00 0.000000e+00
1
Step 565000
Ar -7.287696e-01 0.000000e+00 0.000000e+00
1
Step 566000
Ar -7.843168e-01 0.000000e+00 0.000000e+00
1
Step 567000
Ar -7.781667e-01 0.000000e+00 0.000000e+00
1
Step 568000
Ar -7.866031e-01 0.000000e+00 0.000000e+00
1
Step 569000
Ar -7.909668e-01 0.000000e+00 0.000000e+00
1
Step 570000
Ar -7.848962e-01 0.000000e+00 0.000000e+00
1
Step 571000
Ar -7.078345e-01 0.000000e+00 0.000000e+00
1
Step 572000
Ar -6.800754e-01 0.000000e+00 0.000000e+00
1
Step 573000
Ar -7.159919e-01 0.000000e+00 0.000000e+00
1
Step 574000
Ar -6.863206e-01 0.000000e+00 0.000000e+00
1
Step 575000
Ar -6.783631e-01 0.000000e+00 0.000000e+00
1
Step 576000
Ar -6.576707e-01 0.000000e+00 0.000000e+00
1
Step 577000
Ar -6.084512e-01 0.000000e+00 0.000000e+00
1
Step 578000
Ar -6.068211e-01 0.000000e+00 0.000000e+00
1
Step 579000
Ar -6.079731e-01 0.000000e+00 0.000000e+00
1
Step 580000
Ar -6.096430e-01 0.000000e+00 0.000000e+00
1
Step 581000
Ar -7.719509e-01 0.000000e+00 0.000000e+00
1
Step 582000
Ar -7.741068e-01 0.000000e+00 0.000000e+00
1
Step 583000
Ar -7.715153e-01 0.000000e+00 0.000000e+00
1
Step 584000
Ar -7.763554e-01 0.000000e+00 0.000000e+00
1
Step 585000
Ar -7.706035e-01 0.000000e+00 0.000000e+00
1
Step 586000
Ar -6.957561e-01 0.000000e+00 0.000000e+00
1
Step 587000
Ar -7.166771e-01 0.000000e+00 0.000000e+00
1
Step 588000
Ar -6.977800e-01 0.000000e+00 0.000000e+00
1
Step 589000
Ar -6.927437e-01 0.000000e+00 0.000000e+00
1
Step 590000
Ar -7.066494e-01 0.000000e+00 0.000000e+00
1
Step 591000
Ar -4.757461e-01 0.000000e+00 0.000000e+00
1
Step 592000
Ar -4.244126e-01 0.000000e+00 0.000000e+00
1
Step 593000
Ar -3.949548e-01 0.000000e+00 0.000000e+00
1
Step 594000
Ar -4.585077e-01 0.000000e+00 0.000000e+00
1
Step 595000
Ar -4.538311e-01 0.000000e+00 0.000000e+00
1
Step 596000
Ar -5.337952e-01 0.000000e+00 0.000000e+00
1
Step 597000
Ar -5.330036e-01 0.000000e+00 0.000000e+00
1
Step 598000
Ar -5.118799e-01 0.000000e+00 0.000000e+00
1
Step 599000
Ar -5.120464e-01 0.000000e+00 0.000000e+00
1
Step 600000
Ar -5.108156e-01 0.000000e+00 0.000000e+00
1
Step 601000
Ar -5.658704e-01 0.000000e+00 0.000000e+00
1
Step 602000
Ar -5.666216e-01 0.000000e+00 0.000000e+00
1
Step 603000
Ar -5.639426e-01 0.000000e+00 0.000000e+00
1
Step 604000
Ar -5.728239e-01 0.000000e+00 0.000000e+00
1
Step 605000
Ar -5.621305e-01 0.000000e+00 0.000000e+00
1
Step 606000
Ar -5.335127e-01 0.000000e+00 0.000000e+00
1
Step 607000
Ar -5.274422e-01 0.000000e+00 0.000000e+00
1
Step 608000
Ar -5.303150e-01 0.000000e+00 0.000000e+00
1
Step 609000
Ar -5.313953e-01 0.000000e+00 0.000000e+00
1
Step 610000
Ar -5.274321e-01 0.000000e+00 0.000000e+00
1
Step 611000
Ar -5.398863e-01 0.000000e+00 0.000000e+00
1
Step 612000
Ar -5.347390e-01 0.000000e+00 0.000000e+00
1
Step 613000
Ar -5.377041e-01 0.000000e+00 0.000000e+00
1
Step 614000
Ar -5.362356e-01 0.000000e+00 0.000000e+00
1
Step 615000
Ar -5.022943e-01 0.000000e+00 0.000000e+00
1
Step 616000
Ar -4.111092e-01 0.000000e+00 0.000000e+00
1
Step 617000
Ar -4.190616e-01 0.000000e+00 0.000000e+00
1
Step 618000
Ar -3.978166e-01 0.000000e+00 0.000000e+00
1
Step 619000
Ar -4.153953e-01 0.000000e+00 0.000000e+00
1
Step 620000
Ar -4.247470e-01 0.000000e+00 0.000000e+00
1
Step 621000
Ar -3.742226e-01 0.000000e+00 0.000000e+00
1
Step 622000
Ar -4.127282e-01 0.000000e+00 0.000000e+00
1
Step 623000
Ar -3.889205e-01 0.000000e+00 0.000000e+00
1
Step 624000
Ar -3.988389e-01 0.000000e+00 0.000000e+00
1
Step 625000
Ar -4.043237e-01 0.000000e+00 0.000000e+00
1
Step 626000
Ar -3.893170e-01 0.000000e+00 0.000000e+00
1
Step 627000
Ar -3.770296e-01 0.000000e+00 0.000000e+00
1
Step 628000
Ar -3.915840e-01 0.000000e+00 0.000000e+00
1
Step 629000
Ar -3.830612e-01 0.000000e+00 0.000000e+00
1
Step 630000
Ar -3.803358e-01 0.000000e+00 0.000000e+00
1
Step 631000
Ar -4.701138e-01 0.000000e+00 0.000000e+00
1
Step 632000
Ar -4.687342e-01 0.000000e+00 0.000000e+00
1
Step 633000
Ar -4.639324e-01 0.000000e+00 0.000000e+00
1
Step 634000
Ar -4.683918e-01 0.000000e+00 0.000000e+00
1
Step 635000
Ar -4.693901e-01 0.000000e+00 0.000000e+00
1
Step 636000
Ar -4.822542e-01 0.000000e+00 0.000000e+00
1
Step 637000
Ar -4.768305e-01 0.000000e+00 0.000000e+00
1
Step 638000
Ar -4.791555e-01 0.000000e+00 0.000000e+00
1
Step 639000
Ar -4.771980e-01 0.000000e+00 0.000000e+00
1
Step 640000
Ar -4.819010e-01 0.000000e+00 0.000000e+00
1
Step 641000
Ar -2.484849e-01 0.000000e+00 0.000000e+00
1
Step 642000
Ar -2.184787e-01 0.000000e+00 0.000000e+00
1
Step 643000
Ar -2.304557e-01 0.000000e+00 0.000000e+00
1
Step 644000
Ar -2.310364e-01 0.000000e+00 0.000000e+00
1
Step 645000
Ar -2.291291e-01 0.000000e+00 0.000000e+00
1
Step 646000
Ar -2.428118e-01 0.000000e+00 0.000000e+00
1
Step 647000
Ar -2.458554e-01 0.000000e+00 0.000000e+00
1
Step 648000
Ar -2.474025e-01 0.000000e+00 0.000000e+00
1
Step 649000
Ar -2.496632e-01 0.000000e+00 0.000000e+00
1
Step 650000
Ar -2.448902e-01 0.000000e+00 0.000000e+00
1
Step 651000