1
Step 120000
Ar 9.747667e-01 0.000000e+00 0.000000e+00
1
Step 121000
Ar 1.098483e+00 0.000000e+00 0.000000e+00
1
Step 122000
Ar 6.477837e-01 0.000000e+00 0.000000e+00
1
Step 123000
Ar 6.819687e-01 0.000000e+00 0.000000e+00
1
Step 124000
Ar 7.237519e-01 0.000000e+00 0.000000e+00
1
Step 125000
Ar 8.068089e-01 0.000000e+00 0.000000e+00
1
Step 126000
Ar 7.898505e-01 0.000000e+00 0.000000e+00
1
Step 127000
Ar 1.190883e+00 0.000000e+00 0.000000e+00
1
Step 128000
Ar 1.183070e+00 0.000000e+00 0.000000e+00
1
Step 129000
Ar 1.117615e+00 0.000000e+00 0.000000e+00
1
Step 130000
Ar 1.141829e+00 0.000000e+00 0.000000e+00
1
Step 131000
Ar 1.105055e+00 0.000000e+00 0.000000e+00
1
Step 132000
Ar 1.110497e+00 0.000000e+00 0.000000e+00
1
Step 133000
Ar 9.544517e-01 0.000000e+00 0.000000e+00
1
Step 134000
Ar 9.211754e-01 0.000000e+00 0.000000e+00
1
Step 135000
Ar 1.002093e+00 0.000000e+00 0.000000e+00
1
Step 136000
Ar 9.441686e-01 0.000000e+00 0.000000e+00
1
Step 137000
Ar 1.085740e+00 0.000000e+00 0.000000e+00
1
Step 138000
Ar 9.441809e-01 0.000000e+00 0.000000e+00
1
Step 139000
Ar 1.049467e+00 0.000000e+00 0.000000e+00
1
Step 140000
Ar 1.051544e+00 0.000000e+00 0.000000e+00
1
Step 141000
Ar 1.018754e+00 0.000000e+00 0.000000e+00
1
Step 142000
Ar 9.937328e-01 0.000000e+00 0.000000e+00
1
Step 143000
Ar 9.504643e-01 0.000000e+00 0.000000e+00
1
Step 144000
Ar 9.526954e-01 0.000000e+00 0.000000e+00
1
Step 145000
Ar 7.844547e-01 0.000000e+00 0.000000e+00
1
Step 146000
Ar 7.700451e-01 0.000000e+00 0.000000e+00
1
Step 147000
Ar 7.691283e-01 0.000000e+00 0.000000e+00
1
Step 148000
Ar 8.948677e-01 0.000000e+00 0.000000e+00
1
Step 149000
Ar 9.106715e-01 0.000000e+00 0.000000e+00
1
Step 150000
Ar 8.605760e-01 0.000000e+00 0.000000e+00
1
Step 151000
Ar 8.522645e-01 0.000000e+00 0.000000e+00
1
Step 152000
Ar 8.512639e-01 0.000000e+00 0.000000e+00
1
Step 153000
Ar 8.313860e-01 0.000000e+00 0.000000e+00
1
Step 154000
Ar 8.098262e-01 0.000000e+00 0.000000e+00
1
Step 155000
Ar 7.529128e-01 0.000000e+00 0.000000e+00
1
Step 156000
Ar 7.982978e-01 0.000000e+00 0.000000e+00
1
Step 157000
Ar 9.022102e-01 0.000000e+00 0.000000e+00
1
Step 158000
Ar 1.191122e+00 0.000000e+00 0.000000e+00
1
Step 159000
Ar 1.175555e+00 0.000000e+00 0.000000e+00
1
Step 160000
Ar 1.205232e+00 0.000000e+00 0.000000e+00
1
Step 161000
Ar 1.079792e+00 0.000000e+00 0.000000e+00
1
Step 162000
Ar 1.078928e+00 0.000000e+00 0.000000e+00
1
Step 163000
Ar 1.081256e+00 0.000000e+00 0.000000e+00
1
Step 164000
Ar 1.078418e+00 0.000000e+00 0.000000e+00
1
Step 165000
Ar 1.080027e+00 0.000000e+00 0.000000e+00
1
Step 166000
Ar 1.109333e+00 0.000000e+00 0.000000e+00
1
Step 167000
Ar 1.062659e+00 0.000000e+00 0.000000e+00
1
Step 168000
Ar 1.074858e+00 0.000000e+00 0.000000e+00
1
Step 169000
Ar 1.005001e+00 0.000000e+00 0.000000e+00
1
Step 170000
Ar 1.044666e+00 0.000000e+00 0.000000e+00
1
Step 171000
Ar 1.261210e+00 0.000000e+00 0.000000e+00
1
Step 172000
Ar 1.360483e+00 0.000000e+00 0.000000e+00
1
Step 173000
Ar 1.316866e+00 0.000000e+00 0.000000e+00
1
Step 174000
Ar 1.273500e+00 0.000000e+00 0.000000e+00
1
Step 175000
Ar 1.197981e+00 0.000000e+00 0.000000e+00
1
Step 176000
Ar 1.194710e+00 0.000000e+00 0.000000e+00
1
Step 177000
Ar 1.207996e+00 0.000000e+00 0.000000e+00
1
Step 178000
Ar 1.221788e+00 0.000000e+00 0.000000e+00
1
Step 179000
Ar 1.283187e+00 0.000000e+00 0.000000e+00
1
Step 180000
Ar 1.309491e+00 0.000000e+00 0.000000e+00
1
Step 181000
Ar 1.200755e+00 0.000000e+00 0.000000e+00
1
Step 182000
Ar 1.213567e+00 0.000000e+00 0.000000e+00
1
Step 183000
Ar 1.240078e+00 0.000000e+00 0.000000e+00
1
Step 184000
Ar 1.232808e+00 0.000000e+00 0.000000e+00
1
Step 185000
Ar 1.190705e+00 0.000000e+00 0.000000e+00
1
Step 186000
Ar 1.144498e+00 0.000000e+00 0.000000e+00
1
Step 187000
Ar 1.140955e+00 0.000000e+00 0.000000e+00
1
Step 188000
Ar 1.135894e+00 0.000000e+00 0.000000e+00
1
Step 189000
Ar 1.152095e+00 0.000000e+00 0.000000e+00
1
Step 190000
Ar 1.146046e+00 0.000000e+00 0.000000e+00
1
Step 191000
Ar 1.254846e+00 0.000000e+00 0.000000e+00
1
Step 192000
Ar 1.062721e+00 0.000000e+00 0.000000e+00
1
Step 193000
Ar 8.358967e-01 0.000000e+00 0.000000e+00
1
Step 194000
Ar 8.642364e-01 0.000000e+00 0.000000e+00
1
Step 195000
Ar 8.601404e-01 0.000000e+00 0.000000e+00
1
Step 196000
Ar 8.644897e-01 0.000000e+00 0.000000e+00
1
Step 197000
Ar 1.693756e-01 0.000000e+00 0.000000e+00
1
Step 198000
Ar 5.651937e-01 0.000000e+00 0.000000e+00
1
Step 199000
Ar 5.782508e-01 0.000000e+00 0.000000e+00
1
Step 200000
Ar 6.205922e-01 0.000000e+00 0.000000e+00
1
Step 201000
Ar 6.384174e-01 0.000000e+00 0.000000e+00
1
Step 202000
Ar 9.507663e-01 0.000000e+00 0.000000e+00
1
Step 203000
Ar 9.158138e-01 0.000000e+00 0.000000e+00
1
Step 204000
Ar 9.096121e-01 0.000000e+00 0.000000e+00
1
Step 205000
Ar 8.958862e-01 0.000000e+00 0.000000e+00
1
Step 206000
Ar 9.241579e-01 0.000000e+00 0.000000e+00
1
Step 207000
Ar 9.667173e-01 0.000000e+00 0.000000e+00
1
Step 208000
Ar 9.173811e-01 0.000000e+00 0.000000e+00
1
Step 209000
Ar 9.916856e-01 0.000000e+00 0.000000e+00
1
Step 210000
Ar 9.690207e-01 0.000000e+00 0.000000e+00
1
Step 211000
Ar 6.151356e-01 0.000000e+00 0.000000e+00
1
Step 212000
Ar 4.758443e-01 0.000000e+00 0.000000e+00
1
Step 213000
Ar 4.385092e-01 0.000000e+00 0.000000e+00
1
Step 214000
Ar 6.422971e-01 0.000000e+00 0.000000e+00
1
Step 215000
Ar 4.637573e-01 0.000000e+00 0.000000e+00
1
Step 216000
Ar 4.723135e-01 0.000000e+00 0.000000e+00
1
Step 217000
Ar 4.357394e-01 0.000000e+00 0.000000e+00
1
Step 218000
Ar 4.576968e-01 0.000000e+00 0.000000e+00
1
Step 219000
Ar 4.682599e-01 0.000000e+00 0.000000e+00
1
Step 220000
Ar 4.025849e-01 0.000000e+00 0.000000e+00
1
Step 221000
Ar -5.294620e-02 0.000000e+00 0.000000e+00
1
Step 222000
Ar -9.232949e-01 0.000000e+00 0.000000e+00
1
Step 223000
Ar -8.847470e-01 0.000000e+00 0.000000e+00
1
Step 224000
Ar -9.084539e-01 0.000000e+00 0.000000e+00
1
Step 225000
Ar -1.075154e+00 0.000000e+00 0.000000e+00
1
Step 226000
Ar -1.023201e+00 0.000000e+00 0.000000e+00
1
Step 227000
Ar -9.533642e-01 0.000000e+00 0.000000e+00
1
Step 228000
Ar -1.011638e+00 0.000000e+00 0.000000e+00
1
Step 229000
Ar -1.015141e+00 0.000000e+00 0.000000e+00
1
Step 230000
Ar -1.118595e+00 0.000000e+00 0.000000e+00
1
Step 231000
Ar -1.116501e+00 0.000000e+00 0.000000e+00
1
Step 232000
Ar -1.110915e+00 0.000000e+00 0.000000e+00
1
Step 233000
Ar -1.119431e+00 0.000000e+00 0.000000e+00
1
Step 234000
Ar -9.725809e-01 0.000000e+00 0.000000e+00
1
Step 235000
Ar -9.699804e-01 0.000000e+00 0.000000e+00
1
Step 236000
Ar -9.371994e-01 0.000000e+00 0.000000e+00
1
Step 237000
Ar -9.415378e-01 0.000000e+00 0.000000e+00
1
Step 238000
Ar -9.379810e-01 0.000000e+00 0.000000e+00
1
Step 239000
Ar -1.019925e+00 0.000000e+00 0.000000e+00
1
Step 240000
Ar -1.108478e+00 0.000000e+00 0.000000e+00
1
Step 241000
Ar -9.294037e-01 0.000000e+00 0.000000e+00
1
Step 242000
Ar -9.260867e-01 0.000000e+00 0.000000e+00
1
Step 243000
Ar -8.568285e-01 0.000000e+00 0.000000e+00
1
Step 244000
Ar -9.008787e-01 0.000000e+00 0.000000e+00
1
Step 245000
Ar -5.796848e-01 0.000000e+00 0.000000e+00
1
Step 246000
Ar -6.796495e-01 0.000000e+00 0.000000e+00
1
Step 247000
Ar -7.131528e-01 0.000000e+00 0.000000e+00
1
Step 248000
Ar -7.902131e-01 0.000000e+00 0.000000e+00
1
Step 249000
Ar -7.202175e-01 0.000000e+00 0.000000e+00
1
Step 250000
Ar -7.049586e-01 0.000000e+00 0.000000e+00
1
Step 251000
Ar -7.726303e-01 0.000000e+00 0.000000e+00
1
Step 252000
Ar -7.663391e-01 0.000000e+00 0.000000e+00
1
Step 253000
Ar -7.649292e-01 0.000000e+00 0.000000e+00
1
Step 254000
Ar -6.798302e-01 0.000000e+00 0.000000e+00
1
Step 255000
Ar -7.308077e-01 0.000000e+00 0.000000e+00
1
Step 256000
Ar -5.877168e-01 0.000000e+00 0.000000e+00
1
Step 257000
Ar -5.953528e-01 0.000000e+00 0.000000e+00
1
Step 258000
Ar -5.865525e-01 0.000000e+00 0.000000e+00
1
Step 259000
Ar -7.918091e-01 0.000000e+00 0.000000e+00
1
Step 260000
Ar -7.841066e-01 0.000000e+00 0.000000e+00
1
Step 261000
Ar -8.907344e-01 0.000000e+00 0.000000e+00
1
Step 262000
Ar -8.595646e-01 0.000000e+00 0.000000e+00
1
Step 263000
Ar -8.566408e-01 0.000000e+00 0.000000e+00
1
Step 264000
Ar -6.417031e-01 0.000000e+00 0.000000e+00
1
Step 265000
Ar -2.498597e-01 0.000000e+00 0.000000e+00
1
Step 266000
Ar -3.558368e-01 0.000000e+00 0.000000e+00
1
Step 267000
Ar -2.140668e-01 0.000000e+00 0.000000e+00
1
Step 268000
Ar -3.024492e-01 0.000000e+00 0.000000e+00
1
Step 269000
Ar -7.236727e-01 0.000000e+00 0.000000e+00
1
Step 270000
Ar -5.467676e-01 0.000000e+00 0.000000e+00
1
Step 271000
Ar -4.185934e-01 0.000000e+00 0.000000e+00
1
Step 272000
Ar -4.185633e-01 0.000000e+00 0.000000e+00
1
Step 273000
Ar -6.386192e-01 0.000000e+00 0.000000e+00
1
Step 274000
Ar -5.277824e-01 0.000000e+00 0.000000e+00
1
Step 275000
Ar -4.914925e-01 0.000000e+00 0.000000e+00
1
Step 276000
Ar -8.322183e-01 0.000000e+00 0.000000e+00
1
Step 277000
Ar -8.500796e-01 0.000000e+00 0.000000e+00
1
Step 278000
Ar -8.244223e-01 0.000000e+00 0.000000e+00
1
Step 279000
Ar -8.651236e-01 0.000000e+00 0.000000e+00
1
Step 280000
Ar -7.703707e-01 0.000000e+00 0.000000e+00
1
Step 281000
Ar -9.164937e-01 0.000000e+00 0.000000e+00
1
Step 282000
Ar -9.466276e-01 0.000000e+00 0.000000e+00
1
Step 283000
Ar -9.201196e-01 0.000000e+00 0.000000e+00
1
Step 284000
Ar -9.418917e-01 0.000000e+00 0.000000e+00
1
Step 285000
Ar -9.463156e-01 0.000000e+00 0.000000e+00
1
Step 286000
Ar -8.957312e-01 0.000000e+00 0.000000e+00
1
Step 287000
Ar -1.218544e+00 0.000000e+00 0.000000e+00
1
Step 288000
Ar -1.078855e+00 0.000000e+00 0.000000e+00
1
Step 289000
Ar -9.872471e-01 0.000000e+00 0.000000e+00
1
Step 290000
Ar -1.319935e+00 0.000000e+00 0.000000e+00
1
Step 291000
Ar -9.918772e-01 0.000000e+00 0.000000e+00
1
Step 292000
Ar -1.228301e+00 0.000000e+00 0.000000e+00
1
Step 293000
Ar -1.121039e+00 0.000000e+00 0.000000e+00
1
Step 294000
Ar -1.067826e+00 0.000000e+00 0.000000e+00
1
Step 295000
Ar -1.214394e+00 0.000000e+00 0.000000e+00
1
Step 296000
Ar -1.224127e+00 0.000000e+00 0.000000e+00
1
Step 297000
Ar -1.228738e+00 0.000000e+00 0.000000e+00
1
Step 298000
Ar -1.120162e+00 0.000000e+00 0.000000e+00
1
Step 299000
Ar -1.223703e+00 0.000000e+00 0.000000e+00
1
Step 300000
Ar -1.283547e+00 0.000000e+00 0.000000e+00
1
Step 301000
Ar -1.199100e+00 0.000000e+00 0.000000e+00
1
Step 302000
Ar -1.287930e+00 0.000000e+00 0.000000e+00
1
Step 303000
Ar -1.267657e+00 0.000000e+00 0.000000e+00
1
Step 304000
Ar -1.291330e+00 0.000000e+00 0.000000e+00
1
Step 305000
Ar -1.290185e+00 0.000000e+00 0.000000e+00
1
Step 306000
Ar -1.012020e+00 0.000000e+00 0.000000e+00
1
Step 307000
Ar -1.019523e+00 0.000000e+00 0.000000e+00
1
Step 308000
Ar -1.074146e+00 0.000000e+00 0.000000e+00
1
Step 309000
Ar -1.069613e+00 0.000000e+00 0.000000e+00
1
Step 310000
Ar -1.207076e+00 0.000000e+00 0.000000e+00
1
Step 311000
Ar -1.186651e+00 0.000000e+00 0.000000e+00
1
Step 312000
Ar -1.191087e+00 0.000000e+00 0.000000e+00
1
Step 313000
Ar -1.084214e+00 0.000000e+00 0.000000e+00
1
Step 314000
Ar -1.081970e+00 0.000000e+00 0.000000e+00
1
Step 315000
Ar -1.078359e+00 0.000000e+00 0.000000e+00
1
Step 316000
Ar -1.077875e+00 0.000000e+00 0.000000e+00
1
Step 317000
Ar -1.355649e+00 0.000000e+00 0.000000e+00
1
Step 318000
Ar -1.346913e+00 0.000000e+00 0.000000e+00
1
Step 319000
Ar -1.383786e+00 0.000000e+00 0.000000e+00
1
Step 320000
Ar -1.390067e+00 0.000000e+00 0.000000e+00
1
Step 321000
Ar -1.390817e+00 0.000000e+00 0.000000e+00
1
Step 322000
Ar -1.361099e+00 0.000000e+00 0.000000e+00
1
Step 323000
Ar -8.888431e-01 0.000000e+00 0.000000e+00
1
Step 324000
Ar -1.026204e+00 0.000000e+00 0.000000e+00
1
Step 325000
Ar -1.025475e+00 0.000000e+00 0.000000e+00
1
Step 326000
Ar -9.991001e-01 0.000000e+00 0.000000e+00
1
Step 327000
Ar -1.015009e+00 0.000000e+00 0.000000e+00
1
Step 328000
Ar -1.006990e+00 0.000000e+00 0.000000e+00
1
Step 329000
Ar -9.596563e-01 0.000000e+00 0.000000e+00
1
Step 330000
Ar -9.600932e-01 0.000000e+00 0.000000e+00
1
Step 331000
Ar -9.516343e-01 0.000000e+00 0.000000e+00
1
Step 332000
Ar -1.023304e+00 0.000000e+00 0.000000e+00
1
Step 333000
Ar -1.024852e+00 0.000000e+00 0.000000e+00
1
Step 334000
Ar -8.496752e-01 0.000000e+00 0.000000e+00
1
Step 335000
Ar -8.420222e-01 0.000000e+00 0.000000e+00
1
Step 336000
Ar -8.650379e-01 0.000000e+00 0.000000e+00
1
Step 337000
Ar -8.258225e-01 0.000000e+00 0.000000e+00
1
Step 338000
Ar -1.024077e+00 0.000000e+00 0.000000e+00
1
Step 339000
Ar -1.028574e+00 0.000000e+00 0.000000e+00
1
Step 340000
Ar -8.264548e-01 0.000000e+00 0.000000e+00
1
Step 341000
Ar -8.267249e-01 0.000000e+00 0.000000e+00
1
Step 342000
Ar -6.585728e-01 0.000000e+00 0.000000e+00
1
Step 343000
Ar -6.898292e-01 0.000000e+00 0.000000e+00
1
Step 344000
Ar -6.834108e-01 0.000000e+00 0.000000e+00
1
Step 345000
Ar -6.549973e-01 0.000000e+00 0.000000e+00
1
Step 346000
Ar -6.556096e-01 0.000000e+00 0.000000e+00
1
Step 347000
Ar -1.567740e-01 0.000000e+00 0.000000e+00
1
Step 348000
Ar -2.482091e-01 0.000000e+00 0.000000e+00
1
Step 349000
Ar -2.953413e-01 0.000000e+00 0.000000e+00
1
Step 350000
Ar -1.751141e-01 0.000000e+00 0.000000e+00
1
Step 351000
Ar -1.869799e-01 0.000000e+00 0.000000e+00
1
Step 352000
Ar 4.041825e-02 0.000000e+00 0.000000e+00
1
Step 353000
Ar 1.789857e-01 0.000000e+00 0.000000e+00
1
Step 354000
Ar 1.564243e-01 0.000000e+00 0.000000e+00
1
Step 355000
Ar 1.381748e-01 0.000000e+00 0.000000e+00
1
Step 356000
Ar -2.408479e-02 0.000000e+00 0.000000e+00
1
Step 357000
Ar -2.326302e-01 0.000000e+00 0.000000e+00
1
Step 358000
Ar -2.043603e-01 0.000000e+00 0.000000e+00
1
Step 359000
Ar -1.811401e-01 0.000000e+00 0.000000e+00
1
Step 360000
Ar -2.075416e-01 0.000000e+00 0.000000e+00
1
Step 361000
Ar -2.413923e-01 0.000000e+00 0.000000e+00
1
Step 362000
Ar -2.866824e-01 0.000000e+00 0.000000e+00
1
Step 363000
Ar -2.812638e-01 0.000000e+00 0.000000e+00
1
Step 364000
Ar -2.836167e-01 0.000000e+00 0.000000e+00
1
Step 365000
Ar -2.810076e-01 0.000000e+00 0.000000e+00
1
Step 366000
Ar -2.519586e-01 0.000000e+00 0.000000e+00
1
Step 367000
Ar -2.137620e-01 0.000000e+00 0.000000e+00
1
Step 368000
Ar -2.786067e-01 0.000000e+00 0.000000e+00
1
Step 369000
Ar -2.100171e-01 0.000000e+00 0.000000e+00
1
Step 370000
Ar -2.243169e-01 0.000000e+00 0.000000e+00
1
Step 371000
Ar -2.867329e-01 0.000000e+00 0.000000e+00
1
Step 372000
Ar -2.871762e-01 0.000000e+00 0.000000e+00
1
Step 373000
Ar -2.864164e-01 0.000000e+00 0.000000e+00
1
Step 374000
Ar -5.783257e-01 0.000000e+00 0.000000e+00
1
Step 375000
Ar -5.463157e-01 0.000000e+00 0.000000e+00
1
Step 376000
Ar -6.142362e-01 0.000000e+00 0.000000e+00
1
Step 377000
Ar -5.882868e-01 0.000000e+00 0.000000e+00
1
Step 378000
Ar -5.287604e-01 0.000000e+00 0.000000e+00
1
Step 379000
Ar -4.905770e-01 0.000000e+00 0.000000e+00
1
Step 380000
Ar -4.666079e-01 0.000000e+00 0.000000e+00
1
Step 381000
Ar -6.411289e-01 0.000000e+00 0.000000e+00
1
Step 382000
Ar -7.226427e-01 0.000000e+00 0.000000e+00
1
Step 383000
Ar -6.906839e-01 0.000000e+00 0.000000e+00
1
Step 384000
Ar -6.963981e-01 0.000000e+00 0.000000e+00
1
Step 385000
Ar -3.315855e-01 0.000000e+00 0.000000e+00
1
Step 386000
Ar -3.523862e-01 0.000000e+00 0.000000e+00
1
Step 387000
Ar -6.192806e-01 0.000000e+00 0.000000e+00
1
Step 388000
Ar -5.281765e-01 0.000000e+00 0.000000e+00
1
Step 389000
Ar -5.549138e-01 0.000000e+00 0.000000e+00
1
Step 390000
Ar -6.014672e-01 0.000000e+00 0.000000e+00
1
Step 391000
Ar -5.807240e-01 0.000000e+00 0.000000e+00
1
Step 392000
Ar -4.210415e-01 0.000000e+00 0.000000e+00
1
Step 393000
Ar -3.456900e-01 0.000000e+00 0.000000e+00
1
Step 394000
Ar -3.450047e-01 0.000000e+00 0.000000e+00
1
Step 395000
Ar -3.520410e-01 0.000000e+00 0.000000e+00
1
Step 396000
Ar -4.405282e-01 0.000000e+00 0.000000e+00
1
Step 397000
Ar -6.452464e-01 0.000000e+00 0.000000e+00
1
Step 398000
Ar -5.386596e-01 0.000000e+00 0.000000e+00
1
Step 399000
Ar -6.157305e-01 0.000000e+00 0.000000e+00
1
Step 400000
Ar -4.919236e-01 0.000000e+00 0.000000e+00
1
Step 401000
Ar -4.650687e-01 0.000000e+00 0.000000e+00
1
Step 402000
Ar -4.653767e-01 0.000000e+00 0.000000e+00
1
Step 403000
Ar -8.368425e-01 0.000000e+00 0.000000e+00
1
Step 404000
Ar -7.603358e-01 0.000000e+00 0.000000e+00
1
Step 405000
Ar -9.220604e-01 0.000000e+00 0.000000e+00
1
Step 406000
Ar -9.656218e-01 0.000000e+00 0.000000e+00
1
Step 407000
Ar -9.453710e-01 0.000000e+00 0.000000e+00
1
Step 408000
Ar -7.638043e-01 0.000000e+00 0.000000e+00
1
Step 409000
Ar -8.908345e-01 0.000000e+00 0.000000e+00
1
Step 410000
Ar -8.938582e-01 0.000000e+00 0.000000e+00
1
Step 411000
Ar -9.047308e-01 0.000000e+00 0.000000e+00
1
Step 412000
Ar -7.068862e-01 0.000000e+00 0.000000e+00
1
Step 413000
Ar -7.583529e-01 0.000000e+00 0.000000e+00
1
Step 414000
Ar -1.122699e+00 0.000000e+00 0.000000e+00
1
Step 415000
Ar -1.363944e+00 0.000000e+00 0.000000e+00
1
Step 416000
Ar -1.381487e+00 0.000000e+00 0.000000e+00
1
Step 417000
Ar -1.282486e+00 0.000000e+00 0.000000e+00
1
Step 418000
Ar -1.276961e+00 0.000000e+00 0.000000e+00
1
Step 419000
Ar -1.281698e+00 0.000000e+00 0.000000e+00
1
Step 420000
Ar -1.384843e+00 0.000000e+00 0.000000e+00
1
Step 421000
Ar -1.377185e+00 0.000000e+00 0.000000e+00
1
Step 422000
Ar -1.350526e+00 0.000000e+00 0.000000e+00
1
Step 423000
Ar -1.453521e+00 0.000000e+00 0.000000e+00
1
Step 424000
Ar -1.489005e+00 0.000000e+00 0.000000e+00
1
Step 425000
Ar -1.430861e+00 0.000000e+00 0.000000e+00
1
Step 426000
Ar -1.441739e+00 0.000000e+00 0.000000e+00
1
Step 427000
Ar -1.446722e+00 0.000000e+00 0.000000e+00
1
Step 428000
Ar -1.484794e+00 0.000000e+00 0.000000e+00
1
Step 429000
Ar -1.310031e+00 0.000000e+00 0.000000e+00
1
Step 430000
Ar -1.301176e+00 0.000000e+00 0.000000e+00
1
Step 431000
Ar -1.119772e+00 0.000000e+00 0.000000e+00
1
Step 432000
Ar -1.122294e+00 0.000000e+00 0.000000e+00
1
Step 433000
Ar -1.140089e+00 0.000000e+00 0.000000e+00
1
Step 434000
Ar -1.138333e+00 0.000000e+00 0.000000e+00
1
Step 435000
Ar -1.141771e+00 0.000000e+00 0.000000e+00
1
Step 436000
Ar -1.060543e+00 0.000000e+00 0.000000e+00
1
Step 437000
Ar -1.048340e+00 0.000000e+00 0.000000e+00
1
Step 438000
Ar -1.098052e+00 0.000000e+00 0.000000e+00
1
Step 439000
Ar -1.084522e+00 0.000000e+00 0.000000e+00
1
Step 440000
Ar -1.197413e+00 0.000000e+00 0.000000e+00
1
Step 441000
Ar -1.211942e+00 0.000000e+00 0.000000e+00
1
Step 442000
Ar -1.204254e+00 0.000000e+00 0.000000e+00
1
Step 443000
Ar -1.173698e+00 0.000000e+00 0.000000e+00
1
Step 444000
Ar -1.232546e+00 0.000000e+00 0.000000e+00
1
Step 445000
Ar -1.291296e+00 0.000000e+00 0.000000e+00
1
Step 446000
Ar -1.295972e+00 0.000000e+00 0.000000e+00
1
Step 447000
Ar -1.204627e+00 0.000000e+00 0.000000e+00
1
Step 448000
Ar -8.127991e-01 0.000000e+00 0.000000e+00
1
Step 449000
Ar -9.949878e-01 0.000000e+00 0.000000e+00
1
Step 450000
Ar -9.965486e-01 0.000000e+00 0.000000e+00
1
Step 451000
Ar -8.106977e-01 0.000000e+00 0.000000e+00
1
Step 452000
Ar -6.733237e-01 0.000000e+00 0.000000e+00
1
Step 453000
Ar -6.731744e-01 0.000000e+00 0.000000e+00
1
Step 454000
Ar -7.400013e-01 0.000000e+00 0.000000e+00
1
Step 455000
Ar -7.340896e-01 0.000000e+00 0.000000e+00
1
Step 456000
Ar -6.906074e-01 0.000000e+00 0.000000e+00
1
Step 457000
Ar -1.107115e-01 0.000000e+00 0.000000e+00
1
Step 458000
Ar -9.065777e-02 0.000000e+00 0.000000e+00
1
Step 459000
Ar -4.877261e-02 0.000000e+00 0.000000e+00
1
Step 460000
Ar -2.718673e-02 0.000000e+00 0.000000e+00
1
Step 461000
Ar 6.212232e-02 0.000000e+00 0.000000e+00
1
Step 462000
Ar 1.706555e-01 0.000000e+00 0.000000e+00
1
Step 463000
Ar 1.794439e-01 0.000000e+00 0.000000e+00
1
Step 464000
Ar 1.227633e-01 0.000000e+00 0.000000e+00
1
Step 465000
Ar 1.240431e-01 0.000000e+00 0.000000e+00
1
Step 466000
Ar 1.141473e-01 0.000000e+00 0.000000e+00
1
Step 467000
Ar 6.777230e-02 0.000000e+00 0.000000e+00
1
Step 468000
Ar -8.984017e-02 0.000000e+00 0.000000e+00
1
Step 469000
Ar -8.187641e-02 0.000000e+00 0.000000e+00
1
Step 470000
Ar -1.294500e-01 0.000000e+00 0.000000e+00
1
Step 471000
Ar -2.374307e-02 0.000000e+00 0.000000e+00
1
Step 472000
Ar -8.512194e-02 0.000000e+00 0.000000e+00
1
Step 473000
Ar -3.239590e-02 0.000000e+00 0.000000e+00
1
Step 474000
Ar -4.619026e-02 0.000000e+00 0.000000e+00
1
Step 475000
Ar 4.204694e-02 0.000000e+00 0.000000e+00
1
Step 476000
Ar 4.024950e-02 0.000000e+00 0.000000e+00
1
Step 477000
Ar 6.171024e-02 0.000000e+00 0.000000e+00
1
Step 478000
Ar -1.685468e-01 0.000000e+00 0.000000e+00
1
Step 479000
Ar -1.384999e-01 0.000000e+00 0.000000e+00
1
Step 480000
Ar -1.416729e-01 0.000000e+00 0.000000e+00
1
Step 481000
Ar -1.165622e-01 0.000000e+00 0.000000e+00
1
Step 482000
Ar -4.765177e-02 0.000000e+00 0.000000e+00
1
Step 483000
Ar -2.949592e-02 0.000000e+00 0.000000e+00
1
Step 484000
Ar -1.242288e-01 0.000000e+00 0.000000e+00
1
Step 485000
Ar -8.316639e-02 0.000000e+00 0.000000e+00
1
Step 486000
Ar -2.271765e-02 0.000000e+00 0.000000e+00
1
Step 487000
Ar -8.721494e-03 0.000000e+00 0.000000e+00
1
Step 488000
Ar -3.070401e-02 0.000000e+00 0.000000e+00
1
Step 489000
Ar -8.570830e-02 0.000000e+00 0.000000e+00
1
Step 490000
Ar -8.424927e-01 0.000000e+00 0.000000e+00
1
Step 491000
Ar -9.094619e-01 0.000000e+00 0.000000e+00
1
Step 492000
Ar -8.956870e-01 0.000000e+00 0.000000e+00
1
Step 493000
Ar -8.941960e-01 0.000000e+00 0.000000e+00
1
Step 494000
Ar -1.099028e+00 0.000000e+00 0.000000e+00
1
Step 495000
Ar -1.061255e+00 0.000000e+00 0.000000e+00
1
Step 496000
Ar -1.005362e+00 0.000000e+00 0.000000e+00
1
Step 497000
Ar -1.368656e+00 0.000000e+00 0.000000e+00
1
Step 498000
Ar -1.199466e+00 0.000000e+00 0.000000e+00
1
Step 499000
Ar -1.206931e+00 0.000000e+00 0.000000e+00
1
Step 500000
Ar -1.047406e+00 0.000000e+00 0.000000e+00
1
Step 501000
Ar -1.061734e+00 0.000000e+00 0.000000e+00
1
Step 502000
Ar -1.052833e+00 0.000000e+00 0.000000e+00
1
Step 503000
Ar -1.045146e+00 0.000000e+00 0.000000e+00
1
Step 504000
Ar -8.893200e-01 0.000000e+00 0.000000e+00
1
Step 505000
Ar -8.478157e-01 0.000000e+00 0.000000e+00
1
Step 506000
Ar -7.945717e-01 0.000000e+00 0.000000e+00
1
Step 507000
Ar -7.914339e-01 0.000000e+00 0.000000e+00
1
Step 508000
Ar -9.070127e-01 0.000000e+00 0.000000e+00
1
Step 509000
Ar -9.503207e-01 0.000000e+00 0.000000e+00
1
Step 510000
Ar -9.691978e-01 0.000000e+00 0.000000e+00
1
Step 511000
Ar -7.205377e-01 0.000000e+00 0.000000e+00
1
Step 512000
Ar -5.962155e-01 0.000000e+00 0.000000e+00
1
Step 513000
Ar -9.746731e-01 0.000000e+00 0.000000e+00
1
Step 514000
Ar -9.418905e-01 0.000000e+00 0.000000e+00
1
Step 515000
Ar -8.371999e-01 0.000000e+00 0.000000e+00
1
Step 516000
Ar -8.253255e-01 0.000000e+00 0.000000e+00
1
Step 517000
Ar -8.299295e-01 0.000000e+00 0.000000e+00
1
Step 518000
Ar -8.184217e-01 0.000000e+00 0.000000e+00
1
Step 519000
Ar -8.831677e-01 0.000000e+00 0.000000e+00
1
Step 520000
Ar -8.901715e-01 0.000000e+00 0.000000e+00
1
Step 521000
Ar -9.213744e-01 0.000000e+00 0.000000e+00
1
Step 522000
Ar -5.470950e-01 0.000000e+00 0.000000e+00
1
Step 523000
Ar -5.163558e-01 0.000000e+00 0.000000e+00
1
Step 524000
Ar -6.019211e-01 0.000000e+00 0.000000e+00
1
Step 525000
Ar 2.828053e-02 0.000000e+00 0.000000e+00
1
Step 526000
Ar 1.016675e-02 0.000000e+00 0.000000e+00
1
Step 527000
Ar -1.100597e-02 0.000000e+00 0.000000e+00
1
Step 528000
Ar -3.039613e-02 0.000000e+00 0.000000e+00
1
Step 529000
Ar -3.229098e-02 0.000000e+00 0.000000e+00
1
Step 530000
Ar -4.622151e-02 0.000000e+00 0.000000e+00
1
Step 531000
Ar -4.625268e-02 0.000000e+00 0.000000e+00
1
Step 532000
Ar -2.718193e-02 0.000000e+00 0.000000e+00
1
Step 533000
Ar -3.352964e-02 0.000000e+00 0.000000e+00
1
Step 534000
Ar -5.231953e-01 0.000000e+00 0.000000e+00
1
Step 535000
Ar -5.389766e-01 0.000000e+00 0.000000e+00
1
Step 536000
Ar -5.145382e-01 0.000000e+00 0.000000e+00
1
Step 537000
Ar -5.172174e-01 0.000000e+00 0.000000e+00
1
Step 538000
Ar -6.064385e-01 0.000000e+00 0.000000e+00
1
Step 539000
Ar -4.768496e-01 0.000000e+00 0.000000e+00
1
Step 540000
Ar -4.972006e-01 0.000000e+00 0.000000e+00
1
Step 541000
Ar -5.496167e-01 0.000000e+00 0.000000e+00
1
Step 542000
Ar -5.580123e-01 0.000000e+00 0.000000e+00
1
Step 543000
Ar -8.162436e-01 0.000000e+00 0.000000e+00
1
Step 544000
Ar -8.267911e-01 0.000000e+00 0.000000e+00
1
Step 545000
Ar -8.249027e-01 0.000000e+00 0.000000e+00
1
Step 546000
Ar -8.522485e-01 0.000000e+00 0.000000e+00
1
Step 547000
Ar -8.513653e-01 0.000000e+00 0.000000e+00
1
Step 548000
Ar -8.018995e-01 0.000000e+00 0.000000e+00
1
Step 549000
Ar -8.262410e-01 0.000000e+00 0.000000e+00
1
Step 550000
Ar -7.411467e-01 0.000000e+00 0.000000e+00
1
Step 551000
Ar -8.191237e-01 0.000000e+00 0.000000e+00
1
Step 552000
Ar -8.179429e-01 0.000000e+00 0.000000e+00
1
Step 553000
Ar -6.881796e-01 0.000000e+00 0.000000e+00
1
Step 554000
Ar -7.086907e-01 0.000000e+00 0.000000e+00
1
Step 555000
Ar -6.882151e-01 0.000000e+00 0.000000e+00
1
Step 556000
Ar -6.782626e-01 0.000000e+00 0.000000e+00
1
Step 557000
Ar -6.736593e-01 0.000000e+00 0.000000e+00
1
Step 558000
Ar -3.304972e-01 0.000000e+00 0.000000e+00
1
Step 559000
Ar -3.688112e-01 0.000000e+00 0.000000e+00
1
Step 560000
Ar -3.699200e-01 0.000000e+00 0.000000e+00
1
Step 561000
Ar -3.660829e-01 0.000000e+00 0.000000e+00
1
Step 562000
Ar -3.288865e-01 0.000000e+00 0.000000e+00
1
Step 563000
Ar -3.492962e-01 0.000000e+00 0.000000e+00
1
Step 564000
Ar -3.305981e-01 0.000000e+00 0.000000e+00
1
Step 565000
Ar -2.934518e-01 0.000000e+00 0.000000e+00
1
Step 566000
Ar -4.195191e-01 0.000000e+00 0.000000e+00
1
Step 567000
Ar -6.252976e-01 0.000000e+00 0.000000e+00
1
Step 568000
Ar -6.416168e-01 0.000000e+00 0.000000e+00
1
Step 569000
Ar -6.289784e-01 0.000000e+00 0.000000e+00
1
Step 570000
Ar -6.427911e-01 0.000000e+00 0.000000e+00
1
Step 571000
Ar -6.704527e-01 0.000000e+00 0.000000e+00
1
Step 572000
Ar -5.517324e-01 0.000000e+00 0.000000e+00
1
Step 573000
Ar -5.560150e-01 0.000000e+00 0.000000e+00
1
Step 574000
Ar -2.623726e-01 0.000000e+00 0.000000e+00
1
Step 575000
Ar -1.749489e-01 0.000000e+00 0.000000e+00
1
Step 576000
Ar -2.572693e-01 0.000000e+00 0.000000e+00
1
Step 577000
Ar -1.233953e-01 0.000000e+00 0.000000e+00
1
Step 578000
Ar -2.249941e-01 0.000000e+00 0.000000e+00
1
Step 579000
Ar -2.177483e-01 0.000000e+00 0.000000e+00
1
Step 580000
Ar -3.502345e-02 0.000000e+00 0.000000e+00
1
Step 581000
Ar 4.118519e-02 0.000000e+00 0.000000e+00
1
Step 582000
Ar -2.795707e-02 0.000000e+00 0.000000e+00
1
Step 583000
Ar -2.591994e-01 0.000000e+00 0.000000e+00
1
Step 584000
Ar -3.927054e-01 0.000000e+00 0.000000e+00
1
Step 585000
Ar -3.275253e-01 0.000000e+00 0.000000e+00
1
Step 586000
Ar -3.790235e-01 0.000000e+00 0.000000e+00
1
Step 587000
Ar -3.407027e-01 0.000000e+00 0.000000e+00
1
Step 588000
Ar -3.711084e-01 0.000000e+00 0.000000e+00
1
Step 589000
Ar -4.155071e-01 0.000000e+00 0.000000e+00
1
Step 590000
Ar -4.202124e-01 0.000000e+00 0.000000e+00
1
Step 591000
Ar -4.202469e-01 0.000000e+00 0.000000e+00
1
Step 592000
Ar -4.797924e-01 0.000000e+00 0.000000e+00
1
Step 593000
Ar -5.147213e-01 0.000000e+00 0.000000e+00
1
Step 594000
Ar -5.169314e-01 0.000000e+00 0.000000e+00
1
Step 595000
Ar -5.149309e-01 0.000000e+00 0.000000e+00
1
Step 596000
Ar -5.833414e-01 0.000000e+00 0.000000e+00
1
Step 597000
Ar -6.013536e-01 0.000000e+00 0.000000e+00
1
Step 598000
Ar -5.808480e-01 0.000000e+00 0.000000e+00
1
Step 599000
Ar -5.785014e-01 0.000000e+00 0.000000e+00
1
Step 600000
Ar -6.560808e-01 0.000000e+00 0.000000e+00
1
Step 601000
Ar -7.541017e-01 0.000000e+00 0.000000e+00
1
Step 602000
Ar -7.285111e-01 0.000000e+00 0.000000e+00
1
Step 603000
Ar -5.818434e-01 0.000000e+00 0.000000e+00
1
Step 604000
Ar -5.963074e-01 0.000000e+00 0.000000e+00
1
Step 605000
Ar -6.883620e-01 0.000000e+00 0.000000e+00
1
Step 606000
Ar -3.753807e-01 0.000000e+00 0.000000e+00
1
Step 607000
Ar -3.514388e-01 0.000000e+00 0.000000e+00
1
Step 608000
Ar -3.569837e-01 0.000000e+00 0.000000e+00
1
Step 609000
Ar -1.267013e-01 0.000000e+00 0.000000e+00
1
Step 610000
Ar -1.091868e-01 0.000000e+00 0.000000e+00
1
Step 611000
Ar -1.244537e-01 0.000000e+00 0.000000e+00
1
Step 612000
Ar -1.917564e-01 0.000000e+00 0.000000e+00
1
Step 613000
Ar -1.982007e-01 0.000000e+00 0.000000e+00
1
Step 614000
Ar -2.244966e-01 0.000000e+00 0.000000e+00
1
Step 615000
Ar -2.368011e-01 0.000000e+00 0.000000e+00
1
Step 616000
Ar -2.578422e-01 0.000000e+00 0.000000e+00
1
Step 617000
Ar -2.996817e-01 0.000000e+00 0.000000e+00
1
Step 618000
Ar -3.144475e-01 0.000000e+00 0.000000e+00
1
Step 619000
Ar -1.466013e-01 0.000000e+00 0.000000e+00
1
Step 620000
Ar -1.028528e-01 0.000000e+00 0.000000e+00
1
Step 621000
Ar -1.918474e-01 0.000000e+00 0.000000e+00
1
Step 622000
Ar -1.448523e-01 0.000000e+00 0.000000e+00
1
Step 623000
Ar -1.775938e-01 0.000000e+00 0.000000e+00
1
Step 624000
Ar 4.171728e-02 0.000000e+00 0.000000e+00
1
Step 625000
Ar 4.193547e-02 0.000000e+00 0.000000e+00
1
Step 626000
Ar 5.474083e-01 0.000000e+00 0.000000e+00
1
Step 627000
Ar 4.972014e-01 0.000000e+00 0.000000e+00
1
Step 628000
Ar 5.022363e-01 0.000000e+00 0.000000e+00
1
Step 629000
Ar 6.068505e-01 0.000000e+00 0.000000e+00
1
Step 630000
Ar 6.045866e-01 0.000000e+00 0.000000e+00
1
Step 631000
Ar 6.081706e-01 0.000000e+00 0.000000e+00
1
Step 632000
Ar 3.857729e-01 0.000000e+00 0.000000e+00
1
Step 633000
Ar 3.777977e-01 0.000000e+00 0.000000e+00
1
Step 634000
Ar 3.764120e-01 0.000000e+00 0.000000e+00
1
Step 635000
Ar 3.875354e-01 0.000000e+00 0.000000e+00
1
Step 636000
Ar 3.360738e-01 0.000000e+00 0.000000e+00
1
Step 637000
Ar 3.086620e-01 0.000000e+00 0.000000e+00
1
Step 638000
Ar 4.410884e-01 0.000000e+00 0.000000e+00
1
Step 639000
Ar 4.746802e-01 0.000000e+00 0.000000e+00
1
Step 640000
Ar 5.193158e-01 0.000000e+00 0.000000e+00
1
Step 641000
Ar 4.456127e-01 0.000000e+00 0.000000e+00
1
Step 642000
Ar 4.541116e-01 0.000000e+00 0.000000e+00
1
Step 643000
Ar 4.501568e-01 0.000000e+00 0.000000e+00
1
Step 644000
Ar 6.400050e-01 0.000000e+00 0.000000e+00
1
Step 645000
Ar 7.328156e-01 0.000000e+00 0.000000e+00
1
Step 646000
Ar 8.513624e-01 0.000000e+00 0.000000e+00
1
Step 647000
Ar 1.341022e+00 0.000000e+00 0.000000e+00
1
Step 648000