1
Step 120000
Ar 9.979195e-01 0.000000e+00 0.000000e+00
1
Step 121000
Ar 9.930691e-01 0.000000e+00 0.000000e+00
1
Step 122000
Ar 1.013275e+00 0.000000e+00 0.000000e+00
1
Step 123000
Ar 1.021761e+00 0.000000e+00 0.000000e+00
1
Step 124000
Ar 9.961870e-01 0.000000e+00 0.000000e+00
1
Step 125000
Ar 9.967504e-01 0.000000e+00 0.000000e+00
1
Step 126000
Ar 1.023999e+00 0.000000e+00 0.000000e+00
1
Step 127000
Ar 1.024961e+00 0.000000e+00 0.000000e+00
1
Step 128000
Ar 9.785565e-01 0.000000e+00 0.000000e+00
1
Step 129000
Ar 9.782078e-01 0.000000e+00 0.000000e+00
1
Step 130000
Ar 1.034657e+00 0.000000e+00 0.000000e+00
1
Step 131000
Ar 1.040501e+00 0.000000e+00 0.000000e+00
1
Step 132000
Ar 1.041409e+00 0.000000e+00 0.000000e+00
1
Step 133000
Ar 9.672343e-01 0.000000e+00 0.000000e+00
1
Step 134000
Ar 9.548560e-01 0.000000e+00 0.000000e+00
1
Step 135000
Ar 9.473529e-01 0.000000e+00 0.000000e+00
1
Step 136000
Ar 9.503758e-01 0.000000e+00 0.000000e+00
1
Step 137000
Ar 9.535128e-01 0.000000e+00 0.000000e+00
1
Step 138000
Ar 9.494176e-01 0.000000e+00 0.000000e+00
1
Step 139000
Ar 9.459512e-01 0.000000e+00 0.000000e+00
1
Step 140000
Ar 9.424113e-01 0.000000e+00 0.000000e+00
1
Step 141000
Ar 9.497196e-01 0.000000e+00 0.000000e+00
1
Step 142000
Ar 9.495207e-01 0.000000e+00 0.000000e+00
1
Step 143000
Ar 9.488780e-01 0.000000e+00 0.000000e+00
1
Step 144000
Ar 9.490956e-01 0.000000e+00 0.000000e+00
1
Step 145000
Ar 9.420373e-01 0.000000e+00 0.000000e+00
1
Step 146000
Ar 9.398529e-01 0.000000e+00 0.000000e+00
1
Step 147000
Ar 9.388131e-01 0.000000e+00 0.000000e+00
1
Step 148000
Ar 9.419569e-01 0.000000e+00 0.000000e+00
1
Step 149000
Ar 9.381535e-01 0.000000e+00 0.000000e+00
1
Step 150000
Ar 9.419205e-01 0.000000e+00 0.000000e+00
1
Step 151000
Ar 9.425949e-01 0.000000e+00 0.000000e+00
1
Step 152000
Ar 1.041847e+00 0.000000e+00 0.000000e+00
1
Step 153000
Ar 1.039230e+00 0.000000e+00 0.000000e+00
1
Step 154000
Ar 1.042808e+00 0.000000e+00 0.000000e+00
1
Step 155000
Ar 1.044217e+00 0.000000e+00 0.000000e+00
1
Step 156000
Ar 9.571104e-01 0.000000e+00 0.000000e+00
1
Step 157000
Ar 1.051884e+00 0.000000e+00 0.000000e+00
1
Step 158000
Ar 1.054347e+00 0.000000e+00 0.000000e+00
1
Step 159000
Ar 1.057570e+00 0.000000e+00 0.000000e+00
1
Step 160000
Ar 1.059880e+00 0.000000e+00 0.000000e+00
1
Step 161000
Ar 1.057695e+00 0.000000e+00 0.000000e+00
1
Step 162000
Ar 1.056877e+00 0.000000e+00 0.000000e+00
1
Step 163000
Ar 1.060664e+00 0.000000e+00 0.000000e+00
1
Step 164000
Ar 1.062974e+00 0.000000e+00 0.000000e+00
1
Step 165000
Ar 1.155674e+00 0.000000e+00 0.000000e+00
1
Step 166000
Ar 1.058544e+00 0.000000e+00 0.000000e+00
1
Step 167000
Ar 1.055164e+00 0.000000e+00 0.000000e+00
1
Step 168000
Ar 1.057702e+00 0.000000e+00 0.000000e+00
1
Step 169000
Ar 1.058733e+00 0.000000e+00 0.000000e+00
1
Step 170000
Ar 1.056471e+00 0.000000e+00 0.000000e+00
1
Step 171000
Ar 1.066663e+00 0.000000e+00 0.000000e+00
1
Step 172000
Ar 1.066206e+00 0.000000e+00 0.000000e+00
1
Step 173000
Ar 1.065843e+00 0.000000e+00 0.000000e+00
1
Step 174000
Ar 1.068636e+00 0.000000e+00 0.000000e+00
1
Step 175000
Ar 9.105794e-01 0.000000e+00 0.000000e+00
1
Step 176000
Ar 9.840088e-01 0.000000e+00 0.000000e+00
1
Step 177000
Ar 9.188844e-01 0.000000e+00 0.000000e+00
1
Step 178000
Ar 9.143021e-01 0.000000e+00 0.000000e+00
1
Step 179000
Ar 9.125986e-01 0.000000e+00 0.000000e+00
1
Step 180000
Ar 9.131076e-01 0.000000e+00 0.000000e+00
1
Step 181000
Ar 9.193885e-01 0.000000e+00 0.000000e+00
1
Step 182000
Ar 9.188083e-01 0.000000e+00 0.000000e+00
1
Step 183000
Ar 1.001130e+00 0.000000e+00 0.000000e+00
1
Step 184000
Ar 1.131460e+00 0.000000e+00 0.000000e+00
1
Step 185000
Ar 9.736866e-01 0.000000e+00 0.000000e+00
1
Step 186000
Ar 7.939524e-01 0.000000e+00 0.000000e+00
1
Step 187000
Ar 9.345623e-01 0.000000e+00 0.000000e+00
1
Step 188000
Ar 9.346453e-01 0.000000e+00 0.000000e+00
1
Step 189000
Ar 9.182089e-01 0.000000e+00 0.000000e+00
1
Step 190000
Ar 9.327200e-01 0.000000e+00 0.000000e+00
1
Step 191000
Ar 9.338872e-01 0.000000e+00 0.000000e+00
1
Step 192000
Ar 1.054473e+00 0.000000e+00 0.000000e+00
1
Step 193000
Ar 9.865422e-01 0.000000e+00 0.000000e+00
1
Step 194000
Ar 9.055940e-01 0.000000e+00 0.000000e+00
1
Step 195000
Ar 9.351027e-01 0.000000e+00 0.000000e+00
1
Step 196000
Ar 9.829010e-01 0.000000e+00 0.000000e+00
1
Step 197000
Ar 9.892024e-01 0.000000e+00 0.000000e+00
1
Step 198000
Ar 1.102716e+00 0.000000e+00 0.000000e+00
1
Step 199000
Ar 9.788608e-01 0.000000e+00 0.000000e+00
1
Step 200000
Ar 1.085239e+00 0.000000e+00 0.000000e+00
1
Step 201000
Ar 6.683992e-01 0.000000e+00 0.000000e+00
1
Step 202000
Ar 9.572167e-01 0.000000e+00 0.000000e+00
1
Step 203000
Ar 9.036497e-01 0.000000e+00 0.000000e+00
1
Step 204000
Ar 8.888548e-01 0.000000e+00 0.000000e+00
1
Step 205000
Ar 8.937515e-01 0.000000e+00 0.000000e+00
1
Step 206000
Ar 8.980245e-01 0.000000e+00 0.000000e+00
1
Step 207000
Ar 8.914088e-01 0.000000e+00 0.000000e+00
1
Step 208000
Ar 8.955098e-01 0.000000e+00 0.000000e+00
1
Step 209000
Ar 8.925062e-01 0.000000e+00 0.000000e+00
1
Step 210000
Ar 8.959302e-01 0.000000e+00 0.000000e+00
1
Step 211000
Ar 8.930242e-01 0.000000e+00 0.000000e+00
1
Step 212000
Ar 8.945649e-01 0.000000e+00 0.000000e+00
1
Step 213000
Ar 8.911126e-01 0.000000e+00 0.000000e+00
1
Step 214000
Ar 8.856260e-01 0.000000e+00 0.000000e+00
1
Step 215000
Ar 8.866559e-01 0.000000e+00 0.000000e+00
1
Step 216000
Ar 8.831245e-01 0.000000e+00 0.000000e+00
1
Step 217000
Ar 8.850790e-01 0.000000e+00 0.000000e+00
1
Step 218000
Ar 8.843628e-01 0.000000e+00 0.000000e+00
1
Step 219000
Ar 8.868418e-01 0.000000e+00 0.000000e+00
1
Step 220000
Ar 8.860110e-01 0.000000e+00 0.000000e+00
1
Step 221000
Ar 8.886741e-01 0.000000e+00 0.000000e+00
1
Step 222000
Ar 8.889492e-01 0.000000e+00 0.000000e+00
1
Step 223000
Ar 8.896886e-01 0.000000e+00 0.000000e+00
1
Step 224000
Ar 8.860558e-01 0.000000e+00 0.000000e+00
1
Step 225000
Ar 8.864190e-01 0.000000e+00 0.000000e+00
1
Step 226000
Ar 8.883609e-01 0.000000e+00 0.000000e+00
1
Step 227000
Ar 8.836971e-01 0.000000e+00 0.000000e+00
1
Step 228000
Ar 8.855694e-01 0.000000e+00 0.000000e+00
1
Step 229000
Ar 8.851176e-01 0.000000e+00 0.000000e+00
1
Step 230000
Ar 8.841747e-01 0.000000e+00 0.000000e+00
1
Step 231000
Ar 8.853747e-01 0.000000e+00 0.000000e+00
1
Step 232000
Ar 8.846155e-01 0.000000e+00 0.000000e+00
1
Step 233000
Ar 8.853889e-01 0.000000e+00 0.000000e+00
1
Step 234000
Ar 8.738084e-01 0.000000e+00 0.000000e+00
1
Step 235000
Ar 8.751448e-01 0.000000e+00 0.000000e+00
1
Step 236000
Ar 8.786793e-01 0.000000e+00 0.000000e+00
1
Step 237000
Ar 8.757306e-01 0.000000e+00 0.000000e+00
1
Step 238000
Ar 1.032535e+00 0.000000e+00 0.000000e+00
1
Step 239000
Ar 9.678122e-01 0.000000e+00 0.000000e+00
1
Step 240000
Ar 1.040350e+00 0.000000e+00 0.000000e+00
1
Step 241000
Ar 8.763640e-01 0.000000e+00 0.000000e+00
1
Step 242000
Ar 8.733818e-01 0.000000e+00 0.000000e+00
1
Step 243000
Ar 8.805391e-01 0.000000e+00 0.000000e+00
1
Step 244000
Ar 8.762688e-01 0.000000e+00 0.000000e+00
1
Step 245000
Ar 8.759295e-01 0.000000e+00 0.000000e+00
1
Step 246000
Ar 8.803921e-01 0.000000e+00 0.000000e+00
1
Step 247000
Ar 8.758378e-01 0.000000e+00 0.000000e+00
1
Step 248000
Ar 1.148440e+00 0.000000e+00 0.000000e+00
1
Step 249000
Ar 8.248704e-01 0.000000e+00 0.000000e+00
1
Step 250000
Ar 7.416283e-01 0.000000e+00 0.000000e+00
1
Step 251000
Ar 9.337557e-01 0.000000e+00 0.000000e+00
1
Step 252000
Ar 1.178106e+00 0.000000e+00 0.000000e+00
1
Step 253000
Ar 1.019354e+00 0.000000e+00 0.000000e+00
1
Step 254000
Ar 7.093856e-01 0.000000e+00 0.000000e+00
1
Step 255000
Ar 1.021519e+00 0.000000e+00 0.000000e+00
1
Step 256000
Ar 9.370942e-01 0.000000e+00 0.000000e+00
1
Step 257000
Ar 9.188374e-01 0.000000e+00 0.000000e+00
1
Step 258000
Ar 1.168965e+00 0.000000e+00 0.000000e+00
1
Step 259000
Ar 9.680873e-01 0.000000e+00 0.000000e+00
1
Step 260000
Ar 9.680562e-01 0.000000e+00 0.000000e+00
1
Step 261000
Ar 9.387724e-01 0.000000e+00 0.000000e+00
1
Step 262000
Ar 9.344574e-01 0.000000e+00 0.000000e+00
1
Step 263000
Ar 1.087005e+00 0.000000e+00 0.000000e+00
1
Step 264000
Ar 8.630206e-01 0.000000e+00 0.000000e+00
1
Step 265000
Ar 8.673804e-01 0.000000e+00 0.000000e+00
1
Step 266000
Ar 9.022403e-01 0.000000e+00 0.000000e+00
1
Step 267000
Ar 9.812715e-01 0.000000e+00 0.000000e+00
1
Step 268000
Ar 8.001700e-01 0.000000e+00 0.000000e+00
1
Step 269000
Ar 8.638128e-01 0.000000e+00 0.000000e+00
1
Step 270000
Ar 9.644389e-01 0.000000e+00 0.000000e+00
1
Step 271000
Ar 9.735741e-01 0.000000e+00 0.000000e+00
1
Step 272000
Ar 1.017111e+00 0.000000e+00 0.000000e+00
1
Step 273000
Ar 1.181898e+00 0.000000e+00 0.000000e+00
1
Step 274000
Ar 8.922731e-01 0.000000e+00 0.000000e+00
1
Step 275000
Ar 9.363183e-01 0.000000e+00 0.000000e+00
1
Step 276000
Ar 9.403449e-01 0.000000e+00 0.000000e+00
1
Step 277000
Ar 8.408111e-01 0.000000e+00 0.000000e+00
1
Step 278000
Ar 9.661360e-01 0.000000e+00 0.000000e+00
1
Step 279000
Ar 9.491377e-01 0.000000e+00 0.000000e+00
1
Step 280000
Ar 8.217663e-01 0.000000e+00 0.000000e+00
1
Step 281000
Ar 8.869062e-01 0.000000e+00 0.000000e+00
1
Step 282000
Ar 8.330937e-01 0.000000e+00 0.000000e+00
1
Step 283000
Ar 9.565912e-01 0.000000e+00 0.000000e+00
1
Step 284000
Ar 9.621922e-01 0.000000e+00 0.000000e+00
1
Step 285000
Ar 1.000897e+00 0.000000e+00 0.000000e+00
1
Step 286000
Ar 9.584272e-01 0.000000e+00 0.000000e+00
1
Step 287000
Ar 9.794613e-01 0.000000e+00 0.000000e+00
1
Step 288000
Ar 1.009684e+00 0.000000e+00 0.000000e+00
1
Step 289000
Ar 8.151500e-01 0.000000e+00 0.000000e+00
1
Step 290000
Ar 9.356545e-01 0.000000e+00 0.000000e+00
1
Step 291000
Ar 9.343426e-01 0.000000e+00 0.000000e+00
1
Step 292000
Ar 9.066964e-01 0.000000e+00 0.000000e+00
1
Step 293000
Ar 8.525322e-01 0.000000e+00 0.000000e+00
1
Step 294000
Ar 8.466713e-01 0.000000e+00 0.000000e+00
1
Step 295000
Ar 8.431540e-01 0.000000e+00 0.000000e+00
1
Step 296000
Ar 8.441920e-01 0.000000e+00 0.000000e+00
1
Step 297000
Ar 1.156683e+00 0.000000e+00 0.000000e+00
1
Step 298000
Ar 9.123630e-01 0.000000e+00 0.000000e+00
1
Step 299000
Ar 1.108398e+00 0.000000e+00 0.000000e+00
1
Step 300000
Ar 9.434840e-01 0.000000e+00 0.000000e+00
1
Step 301000
Ar 9.363876e-01 0.000000e+00 0.000000e+00
1
Step 302000
Ar 1.111916e+00 0.000000e+00 0.000000e+00
1
Step 303000
Ar 1.110529e+00 0.000000e+00 0.000000e+00
1
Step 304000
Ar 7.682807e-01 0.000000e+00 0.000000e+00
1
Step 305000
Ar 1.128826e+00 0.000000e+00 0.000000e+00
1
Step 306000
Ar 1.074282e+00 0.000000e+00 0.000000e+00
1
Step 307000
Ar 1.139370e+00 0.000000e+00 0.000000e+00
1
Step 308000
Ar 9.197994e-01 0.000000e+00 0.000000e+00
1
Step 309000
Ar 8.311527e-01 0.000000e+00 0.000000e+00
1
Step 310000
Ar 6.104143e-01 0.000000e+00 0.000000e+00
1
Step 311000
Ar 6.204739e-01 0.000000e+00 0.000000e+00
1
Step 312000
Ar 1.113576e+00 0.000000e+00 0.000000e+00
1
Step 313000
Ar 1.014918e+00 0.000000e+00 0.000000e+00
1
Step 314000
Ar 1.220762e+00 0.000000e+00 0.000000e+00
1
Step 315000
Ar 1.236783e+00 0.000000e+00 0.000000e+00
1
Step 316000
Ar 1.097399e+00 0.000000e+00 0.000000e+00
1
Step 317000
Ar 1.217264e+00 0.000000e+00 0.000000e+00
1
Step 318000
Ar 1.028911e+00 0.000000e+00 0.000000e+00
1
Step 319000
Ar 9.111440e-01 0.000000e+00 0.000000e+00
1
Step 320000
Ar 9.941314e-01 0.000000e+00 0.000000e+00
1
Step 321000
Ar 1.122563e+00 0.000000e+00 0.000000e+00
1
Step 322000
Ar 1.034264e+00 0.000000e+00 0.000000e+00
1
Step 323000
Ar 9.376985e-01 0.000000e+00 0.000000e+00
1
Step 324000
Ar 9.388209e-01 0.000000e+00 0.000000e+00
1
Step 325000
Ar 9.370717e-01 0.000000e+00 0.000000e+00
1
Step 326000
Ar 1.133728e+00 0.000000e+00 0.000000e+00
1
Step 327000
Ar 8.277690e-01 0.000000e+00 0.000000e+00
1
Step 328000
Ar 9.494622e-01 0.000000e+00 0.000000e+00
1
Step 329000
Ar 7.533970e-01 0.000000e+00 0.000000e+00
1
Step 330000
Ar 1.226156e+00 0.000000e+00 0.000000e+00
1
Step 331000
Ar 9.853945e-01 0.000000e+00 0.000000e+00
1
Step 332000
Ar 9.114174e-01 0.000000e+00 0.000000e+00
1
Step 333000
Ar 9.191915e-01 0.000000e+00 0.000000e+00
1
Step 334000
Ar 8.645895e-01 0.000000e+00 0.000000e+00
1
Step 335000
Ar 1.087403e+00 0.000000e+00 0.000000e+00
1
Step 336000
Ar 9.384187e-01 0.000000e+00 0.000000e+00
1
Step 337000
Ar 7.308621e-01 0.000000e+00 0.000000e+00
1
Step 338000
Ar 9.345750e-01 0.000000e+00 0.000000e+00
1
Step 339000
Ar 9.348251e-01 0.000000e+00 0.000000e+00
1
Step 340000
Ar 9.390172e-01 0.000000e+00 0.000000e+00
1
Step 341000
Ar 1.101581e+00 0.000000e+00 0.000000e+00
1
Step 342000
Ar 1.044124e+00 0.000000e+00 0.000000e+00
1
Step 343000
Ar 8.996725e-01 0.000000e+00 0.000000e+00
1
Step 344000
Ar 1.002425e+00 0.000000e+00 0.000000e+00
1
Step 345000
Ar 9.060508e-01 0.000000e+00 0.000000e+00
1
Step 346000
Ar 9.055251e-01 0.000000e+00 0.000000e+00
1
Step 347000
Ar 9.203621e-01 0.000000e+00 0.000000e+00
1
Step 348000
Ar 8.849520e-01 0.000000e+00 0.000000e+00
1
Step 349000
Ar 9.048288e-01 0.000000e+00 0.000000e+00
1
Step 350000
Ar 9.024564e-01 0.000000e+00 0.000000e+00
1
Step 351000
Ar 8.988804e-01 0.000000e+00 0.000000e+00
1
Step 352000
Ar 9.012100e-01 0.000000e+00 0.000000e+00
1
Step 353000
Ar 9.043586e-01 0.000000e+00 0.000000e+00
1
Step 354000
Ar 1.073136e+00 0.000000e+00 0.000000e+00
1
Step 355000
Ar 1.049464e+00 0.000000e+00 0.000000e+00
1
Step 356000
Ar 8.346752e-01 0.000000e+00 0.000000e+00
1
Step 357000
Ar 1.241171e+00 0.000000e+00 0.000000e+00
1
Step 358000
Ar 1.028493e+00 0.000000e+00 0.000000e+00
1
Step 359000
Ar 7.659201e-01 0.000000e+00 0.000000e+00
1
Step 360000
Ar 9.022452e-01 0.000000e+00 0.000000e+00
1
Step 361000
Ar 9.047036e-01 0.000000e+00 0.000000e+00
1
Step 362000
Ar 9.004065e-01 0.000000e+00 0.000000e+00
1
Step 363000
Ar 8.989929e-01 0.000000e+00 0.000000e+00
1
Step 364000
Ar 9.013437e-01 0.000000e+00 0.000000e+00
1
Step 365000
Ar 9.015202e-01 0.000000e+00 0.000000e+00
1
Step 366000
Ar 8.954590e-01 0.000000e+00 0.000000e+00
1
Step 367000
Ar 9.027384e-01 0.000000e+00 0.000000e+00
1
Step 368000
Ar 8.999487e-01 0.000000e+00 0.000000e+00
1
Step 369000
Ar 9.033795e-01 0.000000e+00 0.000000e+00
1
Step 370000
Ar 8.982906e-01 0.000000e+00 0.000000e+00
1
Step 371000
Ar 8.994571e-01 0.000000e+00 0.000000e+00
1
Step 372000
Ar 9.071663e-01 0.000000e+00 0.000000e+00
1
Step 373000
Ar 9.008323e-01 0.000000e+00 0.000000e+00
1
Step 374000
Ar 8.842842e-01 0.000000e+00 0.000000e+00
1
Step 375000
Ar 8.877881e-01 0.000000e+00 0.000000e+00
1
Step 376000
Ar 8.943971e-01 0.000000e+00 0.000000e+00
1
Step 377000
Ar 8.887351e-01 0.000000e+00 0.000000e+00
1
Step 378000
Ar 8.887791e-01 0.000000e+00 0.000000e+00
1
Step 379000
Ar 8.843418e-01 0.000000e+00 0.000000e+00
1
Step 380000
Ar 8.896195e-01 0.000000e+00 0.000000e+00
1
Step 381000
Ar 8.860724e-01 0.000000e+00 0.000000e+00
1
Step 382000
Ar 9.126391e-01 0.000000e+00 0.000000e+00
1
Step 383000
Ar 8.102310e-01 0.000000e+00 0.000000e+00
1
Step 384000
Ar 1.187345e+00 0.000000e+00 0.000000e+00
1
Step 385000
Ar 1.116293e+00 0.000000e+00 0.000000e+00
1
Step 386000
Ar 6.170369e-01 0.000000e+00 0.000000e+00
1
Step 387000
Ar 1.037881e+00 0.000000e+00 0.000000e+00
1
Step 388000
Ar 8.921030e-01 0.000000e+00 0.000000e+00
1
Step 389000
Ar 1.085436e+00 0.000000e+00 0.000000e+00
1
Step 390000
Ar 1.138587e+00 0.000000e+00 0.000000e+00
1
Step 391000
Ar 5.637966e-01 0.000000e+00 0.000000e+00
1
Step 392000
Ar 1.113730e+00 0.000000e+00 0.000000e+00
1
Step 393000
Ar 9.082554e-01 0.000000e+00 0.000000e+00
1
Step 394000
Ar 1.179459e+00 0.000000e+00 0.000000e+00
1
Step 395000
Ar 1.128571e+00 0.000000e+00 0.000000e+00
1
Step 396000
Ar 1.085232e+00 0.000000e+00 0.000000e+00
1
Step 397000
Ar 9.563739e-01 0.000000e+00 0.000000e+00
1
Step 398000
Ar 7.204483e-01 0.000000e+00 0.000000e+00
1
Step 399000
Ar 1.158539e+00 0.000000e+00 0.000000e+00
1
Step 400000
Ar 1.084038e+00 0.000000e+00 0.000000e+00
1
Step 401000
Ar 1.083040e+00 0.000000e+00 0.000000e+00
1
Step 402000
Ar 1.091217e+00 0.000000e+00 0.000000e+00
1
Step 403000
Ar 9.244225e-01 0.000000e+00 0.000000e+00
1
Step 404000
Ar 1.173192e+00 0.000000e+00 0.000000e+00
1
Step 405000
Ar 1.063647e+00 0.000000e+00 0.000000e+00
1
Step 406000
Ar 9.973477e-01 0.000000e+00 0.000000e+00
1
Step 407000
Ar 1.141359e+00 0.000000e+00 0.000000e+00
1
Step 408000
Ar 8.621722e-01 0.000000e+00 0.000000e+00
1
Step 409000
Ar 9.057400e-01 0.000000e+00 0.000000e+00
1
Step 410000
Ar 1.004703e+00 0.000000e+00 0.000000e+00
1
Step 411000
Ar 1.093301e+00 0.000000e+00 0.000000e+00
1
Step 412000
Ar 1.004944e+00 0.000000e+00 0.000000e+00
1
Step 413000
Ar 7.198433e-01 0.000000e+00 0.000000e+00
1
Step 414000
Ar 9.567627e-01 0.000000e+00 0.000000e+00
1
Step 415000
Ar 1.108215e+00 0.000000e+00 0.000000e+00
1
Step 416000
Ar 9.109757e-01 0.000000e+00 0.000000e+00
1
Step 417000
Ar 1.092638e+00 0.000000e+00 0.000000e+00
1
Step 418000
Ar 1.175270e+00 0.000000e+00 0.000000e+00
1
Step 419000
Ar 8.647142e-01 0.000000e+00 0.000000e+00
1
Step 420000
Ar 8.642489e-01 0.000000e+00 0.000000e+00
1
Step 421000
Ar 8.652126e-01 0.000000e+00 0.000000e+00
1
Step 422000
Ar 9.064450e-01 0.000000e+00 0.000000e+00
1
Step 423000
Ar 1.172987e+00 0.000000e+00 0.000000e+00
1
Step 424000
Ar 1.110658e+00 0.000000e+00 0.000000e+00
1
Step 425000
Ar 1.182596e+00 0.000000e+00 0.000000e+00
1
Step 426000
Ar 1.053895e+00 0.000000e+00 0.000000e+00
1
Step 427000
Ar 1.025039e+00 0.000000e+00 0.000000e+00
1
Step 428000
Ar 7.569670e-01 0.000000e+00 0.000000e+00
1
Step 429000
Ar 1.092767e+00 0.000000e+00 0.000000e+00
1
Step 430000
Ar 8.659576e-01 0.000000e+00 0.000000e+00
1
Step 431000
Ar 9.507347e-01 0.000000e+00 0.000000e+00
1
Step 432000
Ar 7.417912e-01 0.000000e+00 0.000000e+00
1
Step 433000
Ar 6.341121e-01 0.000000e+00 0.000000e+00
1
Step 434000
Ar 1.142165e+00 0.000000e+00 0.000000e+00
1
Step 435000
Ar 1.276158e+00 0.000000e+00 0.000000e+00
1
Step 436000
Ar 9.423139e-01 0.000000e+00 0.000000e+00
1
Step 437000
Ar 8.403413e-01 0.000000e+00 0.000000e+00
1
Step 438000
Ar 8.412585e-01 0.000000e+00 0.000000e+00
1
Step 439000
Ar 8.564801e-01 0.000000e+00 0.000000e+00
1
Step 440000
Ar 1.022873e+00 0.000000e+00 0.000000e+00
1
Step 441000
Ar 9.239635e-01 0.000000e+00 0.000000e+00
1
Step 442000
Ar 1.018711e+00 0.000000e+00 0.000000e+00
1
Step 443000
Ar 9.853661e-01 0.000000e+00 0.000000e+00
1
Step 444000
Ar 1.179142e+00 0.000000e+00 0.000000e+00
1
Step 445000
Ar 6.176341e-01 0.000000e+00 0.000000e+00
1
Step 446000
Ar 9.063392e-01 0.000000e+00 0.000000e+00
1
Step 447000
Ar 8.840801e-01 0.000000e+00 0.000000e+00
1
Step 448000
Ar 6.667780e-01 0.000000e+00 0.000000e+00
1
Step 449000
Ar 8.420561e-01 0.000000e+00 0.000000e+00
1
Step 450000
Ar 8.419031e-01 0.000000e+00 0.000000e+00
1
Step 451000
Ar 1.026510e+00 0.000000e+00 0.000000e+00
1
Step 452000
Ar 6.158060e-01 0.000000e+00 0.000000e+00
1
Step 453000
Ar 7.765490e-01 0.000000e+00 0.000000e+00
1
Step 454000
Ar 1.094546e+00 0.000000e+00 0.000000e+00
1
Step 455000
Ar 7.219583e-01 0.000000e+00 0.000000e+00
1
Step 456000
Ar -1.306305e+00 0.000000e+00 0.000000e+00
1
Step 457000
Ar -9.878623e-01 0.000000e+00 0.000000e+00
1
Step 458000
Ar -1.004358e+00 0.000000e+00 0.000000e+00
1
Step 459000
Ar -9.681724e-01 0.000000e+00 0.000000e+00
1
Step 460000
Ar -1.011247e+00 0.000000e+00 0.000000e+00
1
Step 461000
Ar -9.918331e-01 0.000000e+00 0.000000e+00
1
Step 462000
Ar -9.996801e-01 0.000000e+00 0.000000e+00
1
Step 463000
Ar -1.024033e+00 0.000000e+00 0.000000e+00
1
Step 464000
Ar -1.012312e+00 0.000000e+00 0.000000e+00
1
Step 465000
Ar -1.026662e+00 0.000000e+00 0.000000e+00
1
Step 466000
Ar -9.818150e-01 0.000000e+00 0.000000e+00
1
Step 467000
Ar -9.835439e-01 0.000000e+00 0.000000e+00
1
Step 468000
Ar -9.806637e-01 0.000000e+00 0.000000e+00
1
Step 469000
Ar -9.860815e-01 0.000000e+00 0.000000e+00
1
Step 470000
Ar -9.826324e-01 0.000000e+00 0.000000e+00
1
Step 471000
Ar -9.885307e-01 0.000000e+00 0.000000e+00
1
Step 472000
Ar -9.859983e-01 0.000000e+00 0.000000e+00
1
Step 473000
Ar -9.804395e-01 0.000000e+00 0.000000e+00
1
Step 474000
Ar -9.749565e-01 0.000000e+00 0.000000e+00
1
Step 475000
Ar -9.757597e-01 0.000000e+00 0.000000e+00
1
Step 476000
Ar -9.799785e-01 0.000000e+00 0.000000e+00
1
Step 477000
Ar -9.721116e-01 0.000000e+00 0.000000e+00
1
Step 478000
Ar -9.831655e-01 0.000000e+00 0.000000e+00
1
Step 479000
Ar -9.793945e-01 0.000000e+00 0.000000e+00
1
Step 480000
Ar -9.793323e-01 0.000000e+00 0.000000e+00
1
Step 481000
Ar -9.998480e-01 0.000000e+00 0.000000e+00
1
Step 482000
Ar -9.666943e-01 0.000000e+00 0.000000e+00
1
Step 483000
Ar -9.700361e-01 0.000000e+00 0.000000e+00
1
Step 484000
Ar -9.680107e-01 0.000000e+00 0.000000e+00
1
Step 485000
Ar -9.675076e-01 0.000000e+00 0.000000e+00
1
Step 486000
Ar -9.537412e-01 0.000000e+00 0.000000e+00
1
Step 487000
Ar -9.524859e-01 0.000000e+00 0.000000e+00
1
Step 488000
Ar -9.555751e-01 0.000000e+00 0.000000e+00
1
Step 489000
Ar -9.540765e-01 0.000000e+00 0.000000e+00
1
Step 490000
Ar -9.504524e-01 0.000000e+00 0.000000e+00
1
Step 491000
Ar -9.511412e-01 0.000000e+00 0.000000e+00
1
Step 492000
Ar -9.476039e-01 0.000000e+00 0.000000e+00
1
Step 493000
Ar -9.519697e-01 0.000000e+00 0.000000e+00
1
Step 494000
Ar -9.520370e-01 0.000000e+00 0.000000e+00
1
Step 495000
Ar -9.498656e-01 0.000000e+00 0.000000e+00
1
Step 496000
Ar -9.501093e-01 0.000000e+00 0.000000e+00
1
Step 497000
Ar -9.515534e-01 0.000000e+00 0.000000e+00
1
Step 498000
Ar -9.521411e-01 0.000000e+00 0.000000e+00
1
Step 499000
Ar -9.578901e-01 0.000000e+00 0.000000e+00
1
Step 500000
Ar -1.062978e+00 0.000000e+00 0.000000e+00
1
Step 501000
Ar -1.048984e+00 0.000000e+00 0.000000e+00
1
Step 502000
Ar -1.044775e+00 0.000000e+00 0.000000e+00
1
Step 503000
Ar -1.052727e+00 0.000000e+00 0.000000e+00
1
Step 504000
Ar -1.055094e+00 0.000000e+00 0.000000e+00
1
Step 505000
Ar -1.053134e+00 0.000000e+00 0.000000e+00
1
Step 506000
Ar -1.052555e+00 0.000000e+00 0.000000e+00
1
Step 507000
Ar -1.056664e+00 0.000000e+00 0.000000e+00
1
Step 508000
Ar -1.055706e+00 0.000000e+00 0.000000e+00
1
Step 509000
Ar -1.050649e+00 0.000000e+00 0.000000e+00
1
Step 510000
Ar -1.050839e+00 0.000000e+00 0.000000e+00
1
Step 511000
Ar -1.055536e+00 0.000000e+00 0.000000e+00
1
Step 512000
Ar -1.059685e+00 0.000000e+00 0.000000e+00
1
Step 513000
Ar -1.062284e+00 0.000000e+00 0.000000e+00
1
Step 514000
Ar -9.426976e-01 0.000000e+00 0.000000e+00
1
Step 515000
Ar -9.396042e-01 0.000000e+00 0.000000e+00
1
Step 516000
Ar -9.384601e-01 0.000000e+00 0.000000e+00
1
Step 517000
Ar -9.329595e-01 0.000000e+00 0.000000e+00
1
Step 518000
Ar -1.049824e+00 0.000000e+00 0.000000e+00
1
Step 519000
Ar -1.067140e+00 0.000000e+00 0.000000e+00
1
Step 520000
Ar -1.073372e+00 0.000000e+00 0.000000e+00
1
Step 521000
Ar -1.071475e+00 0.000000e+00 0.000000e+00
1
Step 522000
Ar -1.072204e+00 0.000000e+00 0.000000e+00
1
Step 523000
Ar -9.209877e-01 0.000000e+00 0.000000e+00
1
Step 524000
Ar -9.208556e-01 0.000000e+00 0.000000e+00
1
Step 525000
Ar -9.807500e-01 0.000000e+00 0.000000e+00
1
Step 526000
Ar -1.051633e+00 0.000000e+00 0.000000e+00
1
Step 527000
Ar -1.008916e+00 0.000000e+00 0.000000e+00
1
Step 528000
Ar -1.079445e+00 0.000000e+00 0.000000e+00
1
Step 529000
Ar -9.750956e-01 0.000000e+00 0.000000e+00
1
Step 530000
Ar -1.151392e+00 0.000000e+00 0.000000e+00
1
Step 531000
Ar -1.063865e+00 0.000000e+00 0.000000e+00
1
Step 532000
Ar -1.132805e+00 0.000000e+00 0.000000e+00
1
Step 533000
Ar -9.714110e-01 0.000000e+00 0.000000e+00
1
Step 534000
Ar -7.421020e-01 0.000000e+00 0.000000e+00
1
Step 535000
Ar -9.143426e-01 0.000000e+00 0.000000e+00
1
Step 536000
Ar -9.118877e-01 0.000000e+00 0.000000e+00
1
Step 537000
Ar -9.105395e-01 0.000000e+00 0.000000e+00
1
Step 538000
Ar -9.176947e-01 0.000000e+00 0.000000e+00
1
Step 539000
Ar -9.086713e-01 0.000000e+00 0.000000e+00
1
Step 540000
Ar -9.119385e-01 0.000000e+00 0.000000e+00
1
Step 541000
Ar -9.087419e-01 0.000000e+00 0.000000e+00
1
Step 542000
Ar -1.001863e+00 0.000000e+00 0.000000e+00
1
Step 543000
Ar -8.640329e-01 0.000000e+00 0.000000e+00
1
Step 544000
Ar -1.042282e+00 0.000000e+00 0.000000e+00
1
Step 545000
Ar -1.138824e+00 0.000000e+00 0.000000e+00
1
Step 546000
Ar -1.153781e+00 0.000000e+00 0.000000e+00
1
Step 547000
Ar -8.906457e-01 0.000000e+00 0.000000e+00
1
Step 548000
Ar -8.824591e-01 0.000000e+00 0.000000e+00
1
Step 549000
Ar -9.540692e-01 0.000000e+00 0.000000e+00
1
Step 550000
Ar -8.145585e-01 0.000000e+00 0.000000e+00
1
Step 551000
Ar -9.497352e-01 0.000000e+00 0.000000e+00
1
Step 552000
Ar -1.068355e+00 0.000000e+00 0.000000e+00
1
Step 553000
Ar -8.394530e-01 0.000000e+00 0.000000e+00
1
Step 554000
Ar -8.701457e-01 0.000000e+00 0.000000e+00
1
Step 555000
Ar -6.284544e-01 0.000000e+00 0.000000e+00
1
Step 556000
Ar -8.479402e-01 0.000000e+00 0.000000e+00
1
Step 557000
Ar -9.476388e-01 0.000000e+00 0.000000e+00
1
Step 558000
Ar -1.118275e+00 0.000000e+00 0.000000e+00
1
Step 559000
Ar -1.150190e+00 0.000000e+00 0.000000e+00
1
Step 560000
Ar -9.594477e-01 0.000000e+00 0.000000e+00
1
Step 561000
Ar -1.035523e+00 0.000000e+00 0.000000e+00
1
Step 562000
Ar -9.086396e-01 0.000000e+00 0.000000e+00
1
Step 563000
Ar -8.514682e-01 0.000000e+00 0.000000e+00
1
Step 564000
Ar -8.511614e-01 0.000000e+00 0.000000e+00
1
Step 565000
Ar -8.510467e-01 0.000000e+00 0.000000e+00
1
Step 566000
Ar -1.076517e+00 0.000000e+00 0.000000e+00
1
Step 567000
Ar -8.899339e-01 0.000000e+00 0.000000e+00
1
Step 568000
Ar -1.089288e+00 0.000000e+00 0.000000e+00
1
Step 569000
Ar -1.084815e+00 0.000000e+00 0.000000e+00
1
Step 570000
Ar -1.084700e+00 0.000000e+00 0.000000e+00
1
Step 571000
Ar -1.090893e+00 0.000000e+00 0.000000e+00
1
Step 572000
Ar -1.086405e+00 0.000000e+00 0.000000e+00
1
Step 573000
Ar -1.083591e+00 0.000000e+00 0.000000e+00
1
Step 574000
Ar -1.084616e+00 0.000000e+00 0.000000e+00
1
Step 575000
Ar -1.083755e+00 0.000000e+00 0.000000e+00
1
Step 576000
Ar -1.137566e+00 0.000000e+00 0.000000e+00
1
Step 577000
Ar -9.727234e-01 0.000000e+00 0.000000e+00
1
Step 578000
Ar -1.096789e+00 0.000000e+00 0.000000e+00
1
Step 579000
Ar -1.093268e+00 0.000000e+00 0.000000e+00
1
Step 580000
Ar -7.400909e-01 0.000000e+00 0.000000e+00
1
Step 581000
Ar -8.384155e-01 0.000000e+00 0.000000e+00
1
Step 582000
Ar -1.100432e+00 0.000000e+00 0.000000e+00
1
Step 583000
Ar -9.928269e-01 0.000000e+00 0.000000e+00
1
Step 584000
Ar -8.926387e-01 0.000000e+00 0.000000e+00
1
Step 585000
Ar -1.004581e+00 0.000000e+00 0.000000e+00
1
Step 586000
Ar -1.022924e+00 0.000000e+00 0.000000e+00
1
Step 587000
Ar -1.032874e+00 0.000000e+00 0.000000e+00
1
Step 588000
Ar -1.031265e+00 0.000000e+00 0.000000e+00
1
Step 589000
Ar -1.034794e+00 0.000000e+00 0.000000e+00
1
Step 590000
Ar -9.630462e-01 0.000000e+00 0.000000e+00
1
Step 591000
Ar -9.222185e-01 0.000000e+00 0.000000e+00
1
Step 592000
Ar -8.450002e-01 0.000000e+00 0.000000e+00
1
Step 593000
Ar -8.978512e-01 0.000000e+00 0.000000e+00
1
Step 594000
Ar -1.034683e+00 0.000000e+00 0.000000e+00
1
Step 595000
Ar -7.051162e-01 0.000000e+00 0.000000e+00
1
Step 596000
Ar -1.015101e+00 0.000000e+00 0.000000e+00
1
Step 597000
Ar -1.100371e+00 0.000000e+00 0.000000e+00
1
Step 598000
Ar -1.101495e+00 0.000000e+00 0.000000e+00
1
Step 599000
Ar -1.097442e+00 0.000000e+00 0.000000e+00
1
Step 600000
Ar -1.095891e+00 0.000000e+00 0.000000e+00
1
Step 601000
Ar -1.093549e+00 0.000000e+00 0.000000e+00
1
Step 602000
Ar -1.028386e+00 0.000000e+00 0.000000e+00
1
Step 603000
Ar -9.676265e-01 0.000000e+00 0.000000e+00
1
Step 604000
Ar -8.660063e-01 0.000000e+00 0.000000e+00
1
Step 605000
Ar -9.482803e-01 0.000000e+00 0.000000e+00
1
Step 606000
Ar -1.190873e+00 0.000000e+00 0.000000e+00
1
Step 607000
Ar -1.211349e+00 0.000000e+00 0.000000e+00
1
Step 608000
Ar -8.253089e-01 0.000000e+00 0.000000e+00
1
Step 609000
Ar -1.108798e+00 0.000000e+00 0.000000e+00
1
Step 610000
Ar -1.290130e+00 0.000000e+00 0.000000e+00
1
Step 611000
Ar -8.526462e-01 0.000000e+00 0.000000e+00
1
Step 612000
Ar -9.763500e-01 0.000000e+00 0.000000e+00
1
Step 613000
Ar -1.089483e+00 0.000000e+00 0.000000e+00
1
Step 614000
Ar -8.389039e-01 0.000000e+00 0.000000e+00
1
Step 615000
Ar -9.467433e-01 0.000000e+00 0.000000e+00
1
Step 616000
Ar -1.062480e+00 0.000000e+00 0.000000e+00
1
Step 617000
Ar -8.742360e-01 0.000000e+00 0.000000e+00
1
Step 618000
Ar -9.905986e-01 0.000000e+00 0.000000e+00
1
Step 619000
Ar -1.186313e+00 0.000000e+00 0.000000e+00
1
Step 620000
Ar -1.043496e+00 0.000000e+00 0.000000e+00
1
Step 621000
Ar -1.095616e+00 0.000000e+00 0.000000e+00
1
Step 622000
Ar -1.064151e+00 0.000000e+00 0.000000e+00
1
Step 623000
Ar -8.601087e-01 0.000000e+00 0.000000e+00
1
Step 624000
Ar -9.935110e-01 0.000000e+00 0.000000e+00
1
Step 625000
Ar -8.479007e-01 0.000000e+00 0.000000e+00
1
Step 626000
Ar -8.493951e-01 0.000000e+00 0.000000e+00
1
Step 627000
Ar -8.505106e-01 0.000000e+00 0.000000e+00
1
Step 628000
Ar -8.472313e-01 0.000000e+00 0.000000e+00
1
Step 629000
Ar -8.463634e-01 0.000000e+00 0.000000e+00
1
Step 630000
Ar -1.007678e+00 0.000000e+00 0.000000e+00
1
Step 631000
Ar -8.508014e-01 0.000000e+00 0.000000e+00
1
Step 632000
Ar -8.500400e-01 0.000000e+00 0.000000e+00
1
Step 633000
Ar -1.077085e+00 0.000000e+00 0.000000e+00
1
Step 634000
Ar -9.428794e-01 0.000000e+00 0.000000e+00
1
Step 635000
Ar -9.504664e-01 0.000000e+00 0.000000e+00
1
Step 636000
Ar -9.907939e-01 0.000000e+00 0.000000e+00
1
Step 637000
Ar -1.161216e+00 0.000000e+00 0.000000e+00
1
Step 638000
Ar -8.924326e-01 0.000000e+00 0.000000e+00
1
Step 639000
Ar -9.122761e-01 0.000000e+00 0.000000e+00
1
Step 640000
Ar -6.544162e-01 0.000000e+00 0.000000e+00
1
Step 641000
Ar -1.037888e+00 0.000000e+00 0.000000e+00
1
Step 642000
Ar -9.451849e-01 0.000000e+00 0.000000e+00
1
Step 643000
Ar -9.877572e-01 0.000000e+00 0.000000e+00
1
Step 644000
Ar -8.541205e-01 0.000000e+00 0.000000e+00
1
Step 645000
Ar -1.071262e+00 0.000000e+00 0.000000e+00
1
Step 646000
Ar -1.086813e+00 0.000000e+00 0.000000e+00
1
Step 647000
Ar -1.024462e+00 0.000000e+00 0.000000e+00
1
Step 648000
Ar -8.693026e-01 0.000000e+00 0.000000e+00
1
Step 649000
Ar -1.217284e+00 0.000000e+00 0.000000e+00
1
Step 650000
Ar -1.119863e+00 0.000000e+00 0.000000e+00
1
Step 651000
Ar -1.094302e+00 0.000000e+00 0.000000e+00
1