1
Step 120000
Ar 1.008771e+00 0.000000e+00 0.000000e+00
1
Step 121000
Ar 9.997231e-01 0.000000e+00 0.000000e+00
1
Step 122000
Ar 1.002389e+00 0.000000e+00 0.000000e+00
1
Step 123000
Ar 1.015810e+00 0.000000e+00 0.000000e+00
1
Step 124000
Ar 1.002765e+00 0.000000e+00 0.000000e+00
1
Step 125000
Ar 9.802716e-01 0.000000e+00 0.000000e+00
1
Step 126000
Ar 9.679835e-01 0.000000e+00 0.000000e+00
1
Step 127000
Ar 9.627201e-01 0.000000e+00 0.000000e+00
1
Step 128000
Ar 9.499759e-01 0.000000e+00 0.000000e+00
1
Step 129000
Ar 9.581001e-01 0.000000e+00 0.000000e+00
1
Step 130000
Ar 1.046489e+00 0.000000e+00 0.000000e+00
1
Step 131000
Ar 9.931632e-01 0.000000e+00 0.000000e+00
1
Step 132000
Ar 9.919611e-01 0.000000e+00 0.000000e+00
1
Step 133000
Ar 9.919864e-01 0.000000e+00 0.000000e+00
1
Step 134000
Ar 1.016317e+00 0.000000e+00 0.000000e+00
1
Step 135000
Ar 1.020875e+00 0.000000e+00 0.000000e+00
1
Step 136000
Ar 1.028408e+00 0.000000e+00 0.000000e+00
1
Step 137000
Ar 1.019512e+00 0.000000e+00 0.000000e+00
1
Step 138000
Ar 1.023213e+00 0.000000e+00 0.000000e+00
1
Step 139000
Ar 1.020214e+00 0.000000e+00 0.000000e+00
1
Step 140000
Ar 1.022151e+00 0.000000e+00 0.000000e+00
1
Step 141000
Ar 1.016889e+00 0.000000e+00 0.000000e+00
1
Step 142000
Ar 1.020002e+00 0.000000e+00 0.000000e+00
1
Step 143000
Ar 1.026988e+00 0.000000e+00 0.000000e+00
1
Step 144000
Ar 1.030323e+00 0.000000e+00 0.000000e+00
1
Step 145000
Ar 1.032275e+00 0.000000e+00 0.000000e+00
1
Step 146000
Ar 1.033655e+00 0.000000e+00 0.000000e+00
1
Step 147000
Ar 1.036274e+00 0.000000e+00 0.000000e+00
1
Step 148000
Ar 1.044015e+00 0.000000e+00 0.000000e+00
1
Step 149000
Ar 1.034886e+00 0.000000e+00 0.000000e+00
1
Step 150000
Ar 1.039332e+00 0.000000e+00 0.000000e+00
1
Step 151000
Ar 1.052417e+00 0.000000e+00 0.000000e+00
1
Step 152000
Ar 1.045234e+00 0.000000e+00 0.000000e+00
1
Step 153000
Ar 1.045011e+00 0.000000e+00 0.000000e+00
1
Step 154000
Ar 1.043576e+00 0.000000e+00 0.000000e+00
1
Step 155000
Ar 1.048546e+00 0.000000e+00 0.000000e+00
1
Step 156000
Ar 9.749187e-01 0.000000e+00 0.000000e+00
1
Step 157000
Ar 9.519322e-01 0.000000e+00 0.000000e+00
1
Step 158000
Ar 9.499828e-01 0.000000e+00 0.000000e+00
1
Step 159000
Ar 9.474504e-01 0.000000e+00 0.000000e+00
1
Step 160000
Ar 9.402989e-01 0.000000e+00 0.000000e+00
1
Step 161000
Ar 9.428245e-01 0.000000e+00 0.000000e+00
1
Step 162000
Ar 9.454574e-01 0.000000e+00 0.000000e+00
1
Step 163000
Ar 9.479490e-01 0.000000e+00 0.000000e+00
1
Step 164000
Ar 9.509255e-01 0.000000e+00 0.000000e+00
1
Step 165000
Ar 9.479591e-01 0.000000e+00 0.000000e+00
1
Step 166000
Ar 9.506121e-01 0.000000e+00 0.000000e+00
1
Step 167000
Ar 9.382972e-01 0.000000e+00 0.000000e+00
1
Step 168000
Ar 9.496178e-01 0.000000e+00 0.000000e+00
1
Step 169000
Ar 9.440212e-01 0.000000e+00 0.000000e+00
1
Step 170000
Ar 9.319256e-01 0.000000e+00 0.000000e+00
1
Step 171000
Ar 9.497440e-01 0.000000e+00 0.000000e+00
1
Step 172000
Ar 9.513674e-01 0.000000e+00 0.000000e+00
1
Step 173000
Ar 9.534421e-01 0.000000e+00 0.000000e+00
1
Step 174000
Ar 1.056374e+00 0.000000e+00 0.000000e+00
1
Step 175000
Ar 9.279602e-01 0.000000e+00 0.000000e+00
1
Step 176000
Ar 9.307381e-01 0.000000e+00 0.000000e+00
1
Step 177000
Ar 9.949257e-01 0.000000e+00 0.000000e+00
1
Step 178000
Ar 9.127829e-01 0.000000e+00 0.000000e+00
1
Step 179000
Ar 9.146853e-01 0.000000e+00 0.000000e+00
1
Step 180000
Ar 9.154264e-01 0.000000e+00 0.000000e+00
1
Step 181000
Ar 9.151812e-01 0.000000e+00 0.000000e+00
1
Step 182000
Ar 9.161562e-01 0.000000e+00 0.000000e+00
1
Step 183000
Ar 9.953311e-01 0.000000e+00 0.000000e+00
1
Step 184000
Ar 9.928540e-01 0.000000e+00 0.000000e+00
1
Step 185000
Ar 9.661210e-01 0.000000e+00 0.000000e+00
1
Step 186000
Ar 1.106717e+00 0.000000e+00 0.000000e+00
1
Step 187000
Ar 9.049180e-01 0.000000e+00 0.000000e+00
1
Step 188000
Ar 9.055371e-01 0.000000e+00 0.000000e+00
1
Step 189000
Ar 8.970398e-01 0.000000e+00 0.000000e+00
1
Step 190000
Ar 9.035131e-01 0.000000e+00 0.000000e+00
1
Step 191000
Ar 1.025665e+00 0.000000e+00 0.000000e+00
1
Step 192000
Ar 9.680063e-01 0.000000e+00 0.000000e+00
1
Step 193000
Ar 9.002518e-01 0.000000e+00 0.000000e+00
1
Step 194000
Ar 1.027818e+00 0.000000e+00 0.000000e+00
1
Step 195000
Ar 9.948689e-01 0.000000e+00 0.000000e+00
1
Step 196000
Ar 9.967680e-01 0.000000e+00 0.000000e+00
1
Step 197000
Ar 9.747308e-01 0.000000e+00 0.000000e+00
1
Step 198000
Ar 1.053723e+00 0.000000e+00 0.000000e+00
1
Step 199000
Ar 9.968128e-01 0.000000e+00 0.000000e+00
1
Step 200000
Ar 1.032777e+00 0.000000e+00 0.000000e+00
1
Step 201000
Ar 7.813458e-01 0.000000e+00 0.000000e+00
1
Step 202000
Ar 1.012452e+00 0.000000e+00 0.000000e+00
1
Step 203000
Ar 9.708625e-01 0.000000e+00 0.000000e+00
1
Step 204000
Ar 1.120280e+00 0.000000e+00 0.000000e+00
1
Step 205000
Ar 1.024971e+00 0.000000e+00 0.000000e+00
1
Step 206000
Ar 1.044238e+00 0.000000e+00 0.000000e+00
1
Step 207000
Ar 1.069073e+00 0.000000e+00 0.000000e+00
1
Step 208000
Ar 1.071270e+00 0.000000e+00 0.000000e+00
1
Step 209000
Ar 1.069021e+00 0.000000e+00 0.000000e+00
1
Step 210000
Ar 1.067488e+00 0.000000e+00 0.000000e+00
1
Step 211000
Ar 1.068600e+00 0.000000e+00 0.000000e+00
1
Step 212000
Ar 1.065851e+00 0.000000e+00 0.000000e+00
1
Step 213000
Ar 1.065112e+00 0.000000e+00 0.000000e+00
1
Step 214000
Ar 8.243468e-01 0.000000e+00 0.000000e+00
1
Step 215000
Ar 1.020471e+00 0.000000e+00 0.000000e+00
1
Step 216000
Ar 9.658546e-01 0.000000e+00 0.000000e+00
1
Step 217000
Ar 8.605436e-01 0.000000e+00 0.000000e+00
1
Step 218000
Ar 1.024551e+00 0.000000e+00 0.000000e+00
1
Step 219000
Ar 1.028215e+00 0.000000e+00 0.000000e+00
1
Step 220000
Ar 1.022541e+00 0.000000e+00 0.000000e+00
1
Step 221000
Ar 9.315606e-01 0.000000e+00 0.000000e+00
1
Step 222000
Ar 1.075959e+00 0.000000e+00 0.000000e+00
1
Step 223000
Ar 1.081965e+00 0.000000e+00 0.000000e+00
1
Step 224000
Ar 1.079686e+00 0.000000e+00 0.000000e+00
1
Step 225000
Ar 1.078977e+00 0.000000e+00 0.000000e+00
1
Step 226000
Ar 1.075281e+00 0.000000e+00 0.000000e+00
1
Step 227000
Ar 1.077151e+00 0.000000e+00 0.000000e+00
1
Step 228000
Ar 1.076926e+00 0.000000e+00 0.000000e+00
1
Step 229000
Ar 1.074496e+00 0.000000e+00 0.000000e+00
1
Step 230000
Ar 1.078025e+00 0.000000e+00 0.000000e+00
1
Step 231000
Ar 1.012985e+00 0.000000e+00 0.000000e+00
1
Step 232000
Ar 1.025500e+00 0.000000e+00 0.000000e+00
1
Step 233000
Ar 7.822705e-01 0.000000e+00 0.000000e+00
1
Step 234000
Ar 6.977305e-01 0.000000e+00 0.000000e+00
1
Step 235000
Ar 9.773737e-01 0.000000e+00 0.000000e+00
1
Step 236000
Ar 8.897654e-01 0.000000e+00 0.000000e+00
1
Step 237000
Ar 1.027176e+00 0.000000e+00 0.000000e+00
1
Step 238000
Ar 1.027300e+00 0.000000e+00 0.000000e+00
1
Step 239000
Ar 9.773612e-01 0.000000e+00 0.000000e+00
1
Step 240000
Ar 1.028904e+00 0.000000e+00 0.000000e+00
1
Step 241000
Ar 1.021081e+00 0.000000e+00 0.000000e+00
1
Step 242000
Ar 8.871494e-01 0.000000e+00 0.000000e+00
1
Step 243000
Ar 8.914757e-01 0.000000e+00 0.000000e+00
1
Step 244000
Ar 8.903447e-01 0.000000e+00 0.000000e+00
1
Step 245000
Ar 8.914685e-01 0.000000e+00 0.000000e+00
1
Step 246000
Ar 8.872285e-01 0.000000e+00 0.000000e+00
1
Step 247000
Ar 8.874335e-01 0.000000e+00 0.000000e+00
1
Step 248000
Ar 8.786621e-01 0.000000e+00 0.000000e+00
1
Step 249000
Ar 8.765983e-01 0.000000e+00 0.000000e+00
1
Step 250000
Ar 7.463363e-01 0.000000e+00 0.000000e+00
1
Step 251000
Ar 8.573708e-01 0.000000e+00 0.000000e+00
1
Step 252000
Ar 1.058269e+00 0.000000e+00 0.000000e+00
1
Step 253000
Ar 1.019301e+00 0.000000e+00 0.000000e+00
1
Step 254000
Ar 1.022674e+00 0.000000e+00 0.000000e+00
1
Step 255000
Ar 1.024745e+00 0.000000e+00 0.000000e+00
1
Step 256000
Ar 9.785758e-01 0.000000e+00 0.000000e+00
1
Step 257000
Ar 1.044000e+00 0.000000e+00 0.000000e+00
1
Step 258000
Ar 1.026004e+00 0.000000e+00 0.000000e+00
1
Step 259000
Ar 1.028158e+00 0.000000e+00 0.000000e+00
1
Step 260000
Ar 1.012378e+00 0.000000e+00 0.000000e+00
1
Step 261000
Ar 1.011004e+00 0.000000e+00 0.000000e+00
1
Step 262000
Ar 8.532652e-01 0.000000e+00 0.000000e+00
1
Step 263000
Ar 8.551511e-01 0.000000e+00 0.000000e+00
1
Step 264000
Ar 8.569891e-01 0.000000e+00 0.000000e+00
1
Step 265000
Ar 8.546577e-01 0.000000e+00 0.000000e+00
1
Step 266000
Ar 8.515994e-01 0.000000e+00 0.000000e+00
1
Step 267000
Ar 1.166818e+00 0.000000e+00 0.000000e+00
1
Step 268000
Ar 1.041228e+00 0.000000e+00 0.000000e+00
1
Step 269000
Ar 1.235094e+00 0.000000e+00 0.000000e+00
1
Step 270000
Ar 8.735154e-01 0.000000e+00 0.000000e+00
1
Step 271000
Ar 1.040791e+00 0.000000e+00 0.000000e+00
1
Step 272000
Ar 8.877229e-01 0.000000e+00 0.000000e+00
1
Step 273000
Ar 6.956358e-01 0.000000e+00 0.000000e+00
1
Step 274000
Ar 1.076316e+00 0.000000e+00 0.000000e+00
1
Step 275000
Ar 1.082161e+00 0.000000e+00 0.000000e+00
1
Step 276000
Ar 1.082639e+00 0.000000e+00 0.000000e+00
1
Step 277000
Ar 1.083380e+00 0.000000e+00 0.000000e+00
1
Step 278000
Ar 1.079863e+00 0.000000e+00 0.000000e+00
1
Step 279000
Ar 1.020366e+00 0.000000e+00 0.000000e+00
1
Step 280000
Ar 1.048825e+00 0.000000e+00 0.000000e+00
1
Step 281000
Ar 1.050079e+00 0.000000e+00 0.000000e+00
1
Step 282000
Ar 1.051868e+00 0.000000e+00 0.000000e+00
1
Step 283000
Ar 1.042004e+00 0.000000e+00 0.000000e+00
1
Step 284000
Ar 1.047241e+00 0.000000e+00 0.000000e+00
1
Step 285000
Ar 1.041792e+00 0.000000e+00 0.000000e+00
1
Step 286000
Ar 1.053992e+00 0.000000e+00 0.000000e+00
1
Step 287000
Ar 9.934903e-01 0.000000e+00 0.000000e+00
1
Step 288000
Ar 1.015901e+00 0.000000e+00 0.000000e+00
1
Step 289000
Ar 1.023972e+00 0.000000e+00 0.000000e+00
1
Step 290000
Ar 9.511807e-01 0.000000e+00 0.000000e+00
1
Step 291000
Ar 1.165120e+00 0.000000e+00 0.000000e+00
1
Step 292000
Ar 8.532716e-01 0.000000e+00 0.000000e+00
1
Step 293000
Ar 1.147860e+00 0.000000e+00 0.000000e+00
1
Step 294000
Ar 1.091462e+00 0.000000e+00 0.000000e+00
1
Step 295000
Ar 1.050764e+00 0.000000e+00 0.000000e+00
1
Step 296000
Ar 1.120230e+00 0.000000e+00 0.000000e+00
1
Step 297000
Ar 8.822656e-01 0.000000e+00 0.000000e+00
1
Step 298000
Ar 7.428733e-01 0.000000e+00 0.000000e+00
1
Step 299000
Ar 9.796420e-01 0.000000e+00 0.000000e+00
1
Step 300000
Ar 7.812792e-01 0.000000e+00 0.000000e+00
1
Step 301000
Ar 9.466883e-01 0.000000e+00 0.000000e+00
1
Step 302000
Ar 1.128425e+00 0.000000e+00 0.000000e+00
1
Step 303000
Ar 7.484103e-01 0.000000e+00 0.000000e+00
1
Step 304000
Ar 9.116460e-01 0.000000e+00 0.000000e+00
1
Step 305000
Ar 1.140299e+00 0.000000e+00 0.000000e+00
1
Step 306000
Ar 9.224838e-01 0.000000e+00 0.000000e+00
1
Step 307000
Ar 9.234159e-01 0.000000e+00 0.000000e+00
1
Step 308000
Ar 9.264995e-01 0.000000e+00 0.000000e+00
1
Step 309000
Ar 9.262719e-01 0.000000e+00 0.000000e+00
1
Step 310000
Ar 9.228484e-01 0.000000e+00 0.000000e+00
1
Step 311000
Ar 9.904181e-01 0.000000e+00 0.000000e+00
1
Step 312000
Ar 1.021051e+00 0.000000e+00 0.000000e+00
1
Step 313000
Ar 8.494362e-01 0.000000e+00 0.000000e+00
1
Step 314000
Ar 8.835901e-01 0.000000e+00 0.000000e+00
1
Step 315000
Ar 9.177036e-01 0.000000e+00 0.000000e+00
1
Step 316000
Ar 9.436389e-01 0.000000e+00 0.000000e+00
1
Step 317000
Ar 1.065062e+00 0.000000e+00 0.000000e+00
1
Step 318000
Ar 1.002619e+00 0.000000e+00 0.000000e+00
1
Step 319000
Ar 8.726284e-01 0.000000e+00 0.000000e+00
1
Step 320000
Ar 8.415042e-01 0.000000e+00 0.000000e+00
1
Step 321000
Ar 8.396220e-01 0.000000e+00 0.000000e+00
1
Step 322000
Ar 8.227553e-01 0.000000e+00 0.000000e+00
1
Step 323000
Ar 9.214492e-01 0.000000e+00 0.000000e+00
1
Step 324000
Ar 9.190603e-01 0.000000e+00 0.000000e+00
1
Step 325000
Ar 6.670226e-01 0.000000e+00 0.000000e+00
1
Step 326000
Ar 1.171993e+00 0.000000e+00 0.000000e+00
1
Step 327000
Ar 1.107584e+00 0.000000e+00 0.000000e+00
1
Step 328000
Ar 9.056482e-01 0.000000e+00 0.000000e+00
1
Step 329000
Ar 9.495799e-01 0.000000e+00 0.000000e+00
1
Step 330000
Ar 9.210995e-01 0.000000e+00 0.000000e+00
1
Step 331000
Ar 6.796034e-01 0.000000e+00 0.000000e+00
1
Step 332000
Ar 1.099278e+00 0.000000e+00 0.000000e+00
1
Step 333000
Ar 8.556482e-01 0.000000e+00 0.000000e+00
1
Step 334000
Ar 8.504339e-01 0.000000e+00 0.000000e+00
1
Step 335000
Ar 9.819550e-01 0.000000e+00 0.000000e+00
1
Step 336000
Ar 1.034410e+00 0.000000e+00 0.000000e+00
1
Step 337000
Ar 9.160782e-01 0.000000e+00 0.000000e+00
1
Step 338000
Ar 8.749404e-01 0.000000e+00 0.000000e+00
1
Step 339000
Ar 1.021526e+00 0.000000e+00 0.000000e+00
1
Step 340000
Ar 9.889810e-01 0.000000e+00 0.000000e+00
1
Step 341000
Ar 8.052670e-01 0.000000e+00 0.000000e+00
1
Step 342000
Ar 8.080942e-01 0.000000e+00 0.000000e+00
1
Step 343000
Ar 1.096681e+00 0.000000e+00 0.000000e+00
1
Step 344000
Ar 8.356043e-01 0.000000e+00 0.000000e+00
1
Step 345000
Ar 1.125999e+00 0.000000e+00 0.000000e+00
1
Step 346000
Ar 1.077302e+00 0.000000e+00 0.000000e+00
1
Step 347000
Ar 1.128039e+00 0.000000e+00 0.000000e+00
1
Step 348000
Ar 8.220510e-01 0.000000e+00 0.000000e+00
1
Step 349000
Ar 1.076132e+00 0.000000e+00 0.000000e+00
1
Step 350000
Ar 9.215414e-01 0.000000e+00 0.000000e+00
1
Step 351000
Ar 9.139949e-01 0.000000e+00 0.000000e+00
1
Step 352000
Ar 1.047135e+00 0.000000e+00 0.000000e+00
1
Step 353000
Ar 9.016837e-01 0.000000e+00 0.000000e+00
1
Step 354000
Ar 6.336715e-01 0.000000e+00 0.000000e+00
1
Step 355000
Ar 8.365695e-01 0.000000e+00 0.000000e+00
1
Step 356000
Ar 1.028678e+00 0.000000e+00 0.000000e+00
1
Step 357000
Ar 1.256906e+00 0.000000e+00 0.000000e+00
1
Step 358000
Ar 1.062522e+00 0.000000e+00 0.000000e+00
1
Step 359000
Ar 9.264337e-01 0.000000e+00 0.000000e+00
1
Step 360000
Ar 9.218029e-01 0.000000e+00 0.000000e+00
1
Step 361000
Ar 9.283053e-01 0.000000e+00 0.000000e+00
1
Step 362000
Ar 1.195278e+00 0.000000e+00 0.000000e+00
1
Step 363000
Ar 1.102185e+00 0.000000e+00 0.000000e+00
1
Step 364000
Ar 1.065761e+00 0.000000e+00 0.000000e+00
1
Step 365000
Ar 8.716437e-01 0.000000e+00 0.000000e+00
1
Step 366000
Ar 1.137375e+00 0.000000e+00 0.000000e+00
1
Step 367000
Ar 7.035986e-01 0.000000e+00 0.000000e+00
1
Step 368000
Ar 8.796595e-01 0.000000e+00 0.000000e+00
1
Step 369000
Ar 1.088967e+00 0.000000e+00 0.000000e+00
1
Step 370000
Ar 7.467232e-01 0.000000e+00 0.000000e+00
1
Step 371000
Ar 1.136786e+00 0.000000e+00 0.000000e+00
1
Step 372000
Ar 8.974763e-01 0.000000e+00 0.000000e+00
1
Step 373000
Ar 1.106849e+00 0.000000e+00 0.000000e+00
1
Step 374000
Ar 9.203703e-01 0.000000e+00 0.000000e+00
1
Step 375000
Ar 1.036203e+00 0.000000e+00 0.000000e+00
1
Step 376000
Ar 9.107637e-01 0.000000e+00 0.000000e+00
1
Step 377000
Ar 8.534618e-01 0.000000e+00 0.000000e+00
1
Step 378000
Ar 1.089837e+00 0.000000e+00 0.000000e+00
1
Step 379000
Ar 7.817117e-01 0.000000e+00 0.000000e+00
1
Step 380000
Ar 8.565817e-01 0.000000e+00 0.000000e+00
1
Step 381000
Ar 8.520045e-01 0.000000e+00 0.000000e+00
1
Step 382000
Ar 8.501533e-01 0.000000e+00 0.000000e+00
1
Step 383000
Ar 8.451769e-01 0.000000e+00 0.000000e+00
1
Step 384000
Ar 1.257370e+00 0.000000e+00 0.000000e+00
1
Step 385000
Ar 9.905194e-01 0.000000e+00 0.000000e+00
1
Step 386000
Ar 1.226989e+00 0.000000e+00 0.000000e+00
1
Step 387000
Ar 9.097932e-01 0.000000e+00 0.000000e+00
1
Step 388000
Ar 9.418219e-01 0.000000e+00 0.000000e+00
1
Step 389000
Ar 1.107020e+00 0.000000e+00 0.000000e+00
1
Step 390000
Ar 9.841634e-01 0.000000e+00 0.000000e+00
1
Step 391000
Ar 1.126140e+00 0.000000e+00 0.000000e+00
1
Step 392000
Ar 6.761785e-01 0.000000e+00 0.000000e+00
1
Step 393000
Ar 8.843296e-01 0.000000e+00 0.000000e+00
1
Step 394000
Ar 6.668391e-01 0.000000e+00 0.000000e+00
1
Step 395000
Ar 9.241323e-01 0.000000e+00 0.000000e+00
1
Step 396000
Ar 6.684217e-01 0.000000e+00 0.000000e+00
1
Step 397000
Ar 9.019639e-01 0.000000e+00 0.000000e+00
1
Step 398000
Ar 8.048996e-01 0.000000e+00 0.000000e+00
1
Step 399000
Ar 7.975984e-01 0.000000e+00 0.000000e+00
1
Step 400000
Ar 8.027557e-01 0.000000e+00 0.000000e+00
1
Step 401000
Ar 8.022409e-01 0.000000e+00 0.000000e+00
1
Step 402000
Ar 6.842712e-01 0.000000e+00 0.000000e+00
1
Step 403000
Ar 1.107129e+00 0.000000e+00 0.000000e+00
1
Step 404000
Ar 1.077278e+00 0.000000e+00 0.000000e+00
1
Step 405000
Ar 9.491364e-01 0.000000e+00 0.000000e+00
1
Step 406000
Ar 1.250389e+00 0.000000e+00 0.000000e+00
1
Step 407000
Ar -3.103910e-03 0.000000e+00 0.000000e+00
1
Step 408000
Ar -9.912482e-01 0.000000e+00 0.000000e+00
1
Step 409000
Ar -9.838738e-01 0.000000e+00 0.000000e+00
1
Step 410000
Ar -1.018305e+00 0.000000e+00 0.000000e+00
1
Step 411000
Ar -1.004479e+00 0.000000e+00 0.000000e+00
1
Step 412000
Ar -1.011557e+00 0.000000e+00 0.000000e+00
1
Step 413000
Ar -1.006000e+00 0.000000e+00 0.000000e+00
1
Step 414000
Ar -1.003459e+00 0.000000e+00 0.000000e+00
1
Step 415000
Ar -9.905465e-01 0.000000e+00 0.000000e+00
1
Step 416000
Ar -1.008536e+00 0.000000e+00 0.000000e+00
1
Step 417000
Ar -9.938264e-01 0.000000e+00 0.000000e+00
1
Step 418000
Ar -1.002884e+00 0.000000e+00 0.000000e+00
1
Step 419000
Ar -9.969517e-01 0.000000e+00 0.000000e+00
1
Step 420000
Ar -1.008397e+00 0.000000e+00 0.000000e+00
1
Step 421000
Ar -1.008256e+00 0.000000e+00 0.000000e+00
1
Step 422000
Ar -1.004038e+00 0.000000e+00 0.000000e+00
1
Step 423000
Ar -9.961943e-01 0.000000e+00 0.000000e+00
1
Step 424000
Ar -1.014009e+00 0.000000e+00 0.000000e+00
1
Step 425000
Ar -1.029776e+00 0.000000e+00 0.000000e+00
1
Step 426000
Ar -1.021959e+00 0.000000e+00 0.000000e+00
1
Step 427000
Ar -1.019297e+00 0.000000e+00 0.000000e+00
1
Step 428000
Ar -9.899401e-01 0.000000e+00 0.000000e+00
1
Step 429000
Ar -9.920527e-01 0.000000e+00 0.000000e+00
1
Step 430000
Ar -9.934612e-01 0.000000e+00 0.000000e+00
1
Step 431000
Ar -9.924258e-01 0.000000e+00 0.000000e+00
1
Step 432000
Ar -9.926830e-01 0.000000e+00 0.000000e+00
1
Step 433000
Ar -9.891102e-01 0.000000e+00 0.000000e+00
1
Step 434000
Ar -9.945755e-01 0.000000e+00 0.000000e+00
1
Step 435000
Ar -9.875815e-01 0.000000e+00 0.000000e+00
1
Step 436000
Ar -9.919847e-01 0.000000e+00 0.000000e+00
1
Step 437000
Ar -9.906721e-01 0.000000e+00 0.000000e+00
1
Step 438000
Ar -9.877301e-01 0.000000e+00 0.000000e+00
1
Step 439000
Ar -9.873627e-01 0.000000e+00 0.000000e+00
1
Step 440000
Ar -9.932338e-01 0.000000e+00 0.000000e+00
1
Step 441000
Ar -9.637648e-01 0.000000e+00 0.000000e+00
1
Step 442000
Ar -9.584428e-01 0.000000e+00 0.000000e+00
1
Step 443000
Ar -9.671557e-01 0.000000e+00 0.000000e+00
1
Step 444000
Ar -1.037812e+00 0.000000e+00 0.000000e+00
1
Step 445000
Ar -1.034490e+00 0.000000e+00 0.000000e+00
1
Step 446000
Ar -1.040826e+00 0.000000e+00 0.000000e+00
1
Step 447000
Ar -9.502059e-01 0.000000e+00 0.000000e+00
1
Step 448000
Ar -9.483452e-01 0.000000e+00 0.000000e+00
1
Step 449000
Ar -1.058726e+00 0.000000e+00 0.000000e+00
1
Step 450000
Ar -1.058949e+00 0.000000e+00 0.000000e+00
1
Step 451000
Ar -1.056770e+00 0.000000e+00 0.000000e+00
1
Step 452000
Ar -1.061900e+00 0.000000e+00 0.000000e+00
1
Step 453000
Ar -9.950727e-01 0.000000e+00 0.000000e+00
1
Step 454000
Ar -9.941936e-01 0.000000e+00 0.000000e+00
1
Step 455000
Ar -1.066780e+00 0.000000e+00 0.000000e+00
1
Step 456000
Ar -1.054590e+00 0.000000e+00 0.000000e+00
1
Step 457000
Ar -1.059421e+00 0.000000e+00 0.000000e+00
1
Step 458000
Ar -1.054564e+00 0.000000e+00 0.000000e+00
1
Step 459000
Ar -1.054457e+00 0.000000e+00 0.000000e+00
1
Step 460000
Ar -1.054843e+00 0.000000e+00 0.000000e+00
1
Step 461000
Ar -1.053579e+00 0.000000e+00 0.000000e+00
1
Step 462000
Ar -1.059353e+00 0.000000e+00 0.000000e+00
1
Step 463000
Ar -9.406054e-01 0.000000e+00 0.000000e+00
1
Step 464000
Ar -9.467411e-01 0.000000e+00 0.000000e+00
1
Step 465000
Ar -9.324681e-01 0.000000e+00 0.000000e+00
1
Step 466000
Ar -7.856075e-01 0.000000e+00 0.000000e+00
1
Step 467000
Ar -9.224400e-01 0.000000e+00 0.000000e+00
1
Step 468000
Ar -9.204399e-01 0.000000e+00 0.000000e+00
1
Step 469000
Ar -9.192924e-01 0.000000e+00 0.000000e+00
1
Step 470000
Ar -9.235093e-01 0.000000e+00 0.000000e+00
1
Step 471000
Ar -9.235017e-01 0.000000e+00 0.000000e+00
1
Step 472000
Ar -9.228275e-01 0.000000e+00 0.000000e+00
1
Step 473000
Ar -9.186554e-01 0.000000e+00 0.000000e+00
1
Step 474000
Ar -9.233279e-01 0.000000e+00 0.000000e+00
1
Step 475000
Ar -1.103334e+00 0.000000e+00 0.000000e+00
1
Step 476000
Ar -1.097340e+00 0.000000e+00 0.000000e+00
1
Step 477000
Ar -9.193678e-01 0.000000e+00 0.000000e+00
1
Step 478000
Ar -9.221222e-01 0.000000e+00 0.000000e+00
1
Step 479000
Ar -9.247572e-01 0.000000e+00 0.000000e+00
1
Step 480000
Ar -9.077999e-01 0.000000e+00 0.000000e+00
1
Step 481000
Ar -9.968661e-01 0.000000e+00 0.000000e+00
1
Step 482000
Ar -9.053118e-01 0.000000e+00 0.000000e+00
1
Step 483000
Ar -9.092071e-01 0.000000e+00 0.000000e+00
1
Step 484000
Ar -9.081487e-01 0.000000e+00 0.000000e+00
1
Step 485000
Ar -9.103893e-01 0.000000e+00 0.000000e+00
1
Step 486000
Ar -1.076122e+00 0.000000e+00 0.000000e+00
1
Step 487000
Ar -1.076185e+00 0.000000e+00 0.000000e+00
1
Step 488000
Ar -1.071275e+00 0.000000e+00 0.000000e+00
1
Step 489000
Ar -1.076185e+00 0.000000e+00 0.000000e+00
1
Step 490000
Ar -1.071131e+00 0.000000e+00 0.000000e+00
1
Step 491000
Ar -1.075924e+00 0.000000e+00 0.000000e+00
1
Step 492000
Ar -1.071598e+00 0.000000e+00 0.000000e+00
1
Step 493000
Ar -1.076467e+00 0.000000e+00 0.000000e+00
1
Step 494000
Ar -1.073914e+00 0.000000e+00 0.000000e+00
1
Step 495000
Ar -1.070735e+00 0.000000e+00 0.000000e+00
1
Step 496000
Ar -1.078122e+00 0.000000e+00 0.000000e+00
1
Step 497000
Ar -1.073147e+00 0.000000e+00 0.000000e+00
1
Step 498000
Ar -1.078197e+00 0.000000e+00 0.000000e+00
1
Step 499000
Ar -1.076392e+00 0.000000e+00 0.000000e+00
1
Step 500000
Ar -1.083185e+00 0.000000e+00 0.000000e+00
1
Step 501000
Ar -1.087404e+00 0.000000e+00 0.000000e+00
1
Step 502000
Ar -1.084212e+00 0.000000e+00 0.000000e+00
1
Step 503000
Ar -1.006564e+00 0.000000e+00 0.000000e+00
1
Step 504000
Ar -9.712669e-01 0.000000e+00 0.000000e+00
1
Step 505000
Ar -1.088963e+00 0.000000e+00 0.000000e+00
1
Step 506000
Ar -1.094809e+00 0.000000e+00 0.000000e+00
1
Step 507000
Ar -1.087991e+00 0.000000e+00 0.000000e+00
1
Step 508000
Ar -1.095118e+00 0.000000e+00 0.000000e+00
1
Step 509000
Ar -1.095473e+00 0.000000e+00 0.000000e+00
1
Step 510000
Ar -1.028061e+00 0.000000e+00 0.000000e+00
1
Step 511000
Ar -9.052389e-01 0.000000e+00 0.000000e+00
1
Step 512000
Ar -9.076215e-01 0.000000e+00 0.000000e+00
1
Step 513000
Ar -9.061435e-01 0.000000e+00 0.000000e+00
1
Step 514000
Ar -1.011478e+00 0.000000e+00 0.000000e+00
1
Step 515000
Ar -1.016419e+00 0.000000e+00 0.000000e+00
1
Step 516000
Ar -9.714146e-01 0.000000e+00 0.000000e+00
1
Step 517000
Ar -1.013597e+00 0.000000e+00 0.000000e+00
1
Step 518000
Ar -1.089024e+00 0.000000e+00 0.000000e+00
1
Step 519000
Ar -1.027570e+00 0.000000e+00 0.000000e+00
1
Step 520000
Ar -9.675345e-01 0.000000e+00 0.000000e+00
1
Step 521000
Ar -9.688187e-01 0.000000e+00 0.000000e+00
1
Step 522000
Ar -9.699079e-01 0.000000e+00 0.000000e+00
1
Step 523000
Ar -9.694823e-01 0.000000e+00 0.000000e+00
1
Step 524000
Ar -9.669819e-01 0.000000e+00 0.000000e+00
1
Step 525000
Ar -8.774408e-01 0.000000e+00 0.000000e+00
1
Step 526000
Ar -7.614846e-01 0.000000e+00 0.000000e+00
1
Step 527000
Ar -9.862295e-01 0.000000e+00 0.000000e+00
1
Step 528000
Ar -1.029713e+00 0.000000e+00 0.000000e+00
1
Step 529000
Ar -1.030680e+00 0.000000e+00 0.000000e+00
1
Step 530000
Ar -1.031891e+00 0.000000e+00 0.000000e+00
1
Step 531000
Ar -1.039326e+00 0.000000e+00 0.000000e+00
1
Step 532000
Ar -9.489531e-01 0.000000e+00 0.000000e+00
1
Step 533000
Ar -1.007136e+00 0.000000e+00 0.000000e+00
1
Step 534000
Ar -8.963409e-01 0.000000e+00 0.000000e+00
1
Step 535000
Ar -1.044971e+00 0.000000e+00 0.000000e+00
1
Step 536000
Ar -1.092716e+00 0.000000e+00 0.000000e+00
1
Step 537000
Ar -9.734762e-01 0.000000e+00 0.000000e+00
1
Step 538000
Ar -9.650338e-01 0.000000e+00 0.000000e+00
1
Step 539000
Ar -1.122578e+00 0.000000e+00 0.000000e+00
1
Step 540000
Ar -9.733510e-01 0.000000e+00 0.000000e+00
1
Step 541000
Ar -8.832056e-01 0.000000e+00 0.000000e+00
1
Step 542000
Ar -1.031475e+00 0.000000e+00 0.000000e+00
1
Step 543000
Ar -8.752603e-01 0.000000e+00 0.000000e+00
1
Step 544000
Ar -8.764337e-01 0.000000e+00 0.000000e+00
1
Step 545000
Ar -8.720944e-01 0.000000e+00 0.000000e+00
1
Step 546000
Ar -1.029535e+00 0.000000e+00 0.000000e+00
1
Step 547000
Ar -1.034718e+00 0.000000e+00 0.000000e+00
1
Step 548000
Ar -9.768551e-01 0.000000e+00 0.000000e+00
1
Step 549000
Ar -9.832555e-01 0.000000e+00 0.000000e+00
1
Step 550000
Ar -9.601960e-01 0.000000e+00 0.000000e+00
1
Step 551000
Ar -9.699794e-01 0.000000e+00 0.000000e+00
1
Step 552000
Ar -9.671059e-01 0.000000e+00 0.000000e+00
1
Step 553000
Ar -1.091962e+00 0.000000e+00 0.000000e+00
1
Step 554000
Ar -1.093381e+00 0.000000e+00 0.000000e+00
1
Step 555000
Ar -1.092335e+00 0.000000e+00 0.000000e+00
1
Step 556000
Ar -1.093513e+00 0.000000e+00 0.000000e+00
1
Step 557000
Ar -1.093179e+00 0.000000e+00 0.000000e+00
1
Step 558000
Ar -9.103356e-01 0.000000e+00 0.000000e+00
1
Step 559000
Ar -9.684529e-01 0.000000e+00 0.000000e+00
1
Step 560000
Ar -9.666488e-01 0.000000e+00 0.000000e+00
1
Step 561000
Ar -1.068661e+00 0.000000e+00 0.000000e+00
1
Step 562000
Ar -1.020367e+00 0.000000e+00 0.000000e+00
1
Step 563000
Ar -1.022287e+00 0.000000e+00 0.000000e+00
1
Step 564000
Ar -1.095599e+00 0.000000e+00 0.000000e+00
1
Step 565000
Ar -1.090833e+00 0.000000e+00 0.000000e+00
1
Step 566000
Ar -1.094387e+00 0.000000e+00 0.000000e+00
1
Step 567000
Ar -1.092425e+00 0.000000e+00 0.000000e+00
1
Step 568000
Ar -8.852737e-01 0.000000e+00 0.000000e+00
1
Step 569000
Ar -9.487692e-01 0.000000e+00 0.000000e+00
1
Step 570000
Ar -9.516885e-01 0.000000e+00 0.000000e+00
1
Step 571000
Ar -9.525977e-01 0.000000e+00 0.000000e+00
1
Step 572000
Ar -9.531432e-01 0.000000e+00 0.000000e+00
1
Step 573000
Ar -9.530632e-01 0.000000e+00 0.000000e+00
1
Step 574000
Ar -9.563821e-01 0.000000e+00 0.000000e+00
1
Step 575000
Ar -1.091879e+00 0.000000e+00 0.000000e+00
1
Step 576000
Ar -9.503965e-01 0.000000e+00 0.000000e+00
1
Step 577000
Ar -1.051559e+00 0.000000e+00 0.000000e+00
1
Step 578000
Ar -1.018051e+00 0.000000e+00 0.000000e+00
1
Step 579000
Ar -1.103835e+00 0.000000e+00 0.000000e+00
1
Step 580000
Ar -1.101434e+00 0.000000e+00 0.000000e+00
1
Step 581000
Ar -1.100974e+00 0.000000e+00 0.000000e+00
1
Step 582000
Ar -1.099968e+00 0.000000e+00 0.000000e+00
1
Step 583000
Ar -1.102409e+00 0.000000e+00 0.000000e+00
1
Step 584000
Ar -1.048331e+00 0.000000e+00 0.000000e+00
1
Step 585000
Ar -8.658478e-01 0.000000e+00 0.000000e+00
1
Step 586000
Ar -9.626599e-01 0.000000e+00 0.000000e+00
1
Step 587000
Ar -9.255894e-01 0.000000e+00 0.000000e+00
1
Step 588000
Ar -9.871202e-01 0.000000e+00 0.000000e+00
1
Step 589000
Ar -9.813702e-01 0.000000e+00 0.000000e+00
1
Step 590000
Ar -9.269777e-01 0.000000e+00 0.000000e+00
1
Step 591000
Ar -1.028887e+00 0.000000e+00 0.000000e+00
1
Step 592000
Ar -1.050130e+00 0.000000e+00 0.000000e+00
1
Step 593000
Ar -1.017671e+00 0.000000e+00 0.000000e+00
1
Step 594000
Ar -8.626214e-01 0.000000e+00 0.000000e+00
1
Step 595000
Ar -1.003895e+00 0.000000e+00 0.000000e+00
1
Step 596000
Ar -9.511078e-01 0.000000e+00 0.000000e+00
1
Step 597000
Ar -9.504772e-01 0.000000e+00 0.000000e+00
1
Step 598000
Ar -1.030454e+00 0.000000e+00 0.000000e+00
1
Step 599000
Ar -1.019428e+00 0.000000e+00 0.000000e+00
1
Step 600000
Ar -1.018695e+00 0.000000e+00 0.000000e+00
1
Step 601000
Ar -1.085956e+00 0.000000e+00 0.000000e+00
1
Step 602000
Ar -9.412154e-01 0.000000e+00 0.000000e+00
1
Step 603000
Ar -9.483245e-01 0.000000e+00 0.000000e+00
1
Step 604000
Ar -9.433517e-01 0.000000e+00 0.000000e+00
1
Step 605000
Ar -9.466746e-01 0.000000e+00 0.000000e+00
1
Step 606000
Ar -9.460613e-01 0.000000e+00 0.000000e+00
1
Step 607000
Ar -9.281351e-01 0.000000e+00 0.000000e+00
1
Step 608000
Ar -9.291145e-01 0.000000e+00 0.000000e+00
1
Step 609000
Ar -1.033876e+00 0.000000e+00 0.000000e+00
1
Step 610000
Ar -1.125522e+00 0.000000e+00 0.000000e+00
1
Step 611000
Ar -1.013239e+00 0.000000e+00 0.000000e+00
1
Step 612000
Ar -9.511555e-01 0.000000e+00 0.000000e+00
1
Step 613000
Ar -9.418253e-01 0.000000e+00 0.000000e+00
1
Step 614000
Ar -9.953028e-01 0.000000e+00 0.000000e+00
1
Step 615000
Ar -8.603347e-01 0.000000e+00 0.000000e+00
1
Step 616000
Ar -8.664020e-01 0.000000e+00 0.000000e+00
1
Step 617000
Ar -9.474579e-01 0.000000e+00 0.000000e+00
1
Step 618000
Ar -1.134592e+00 0.000000e+00 0.000000e+00
1
Step 619000
Ar -8.606677e-01 0.000000e+00 0.000000e+00
1
Step 620000
Ar -8.965179e-01 0.000000e+00 0.000000e+00
1
Step 621000
Ar -8.645409e-01 0.000000e+00 0.000000e+00
1
Step 622000
Ar -8.633125e-01 0.000000e+00 0.000000e+00
1
Step 623000
Ar -8.658021e-01 0.000000e+00 0.000000e+00
1
Step 624000
Ar -1.020323e+00 0.000000e+00 0.000000e+00
1
Step 625000
Ar -8.582984e-01 0.000000e+00 0.000000e+00
1
Step 626000
Ar -9.686017e-01 0.000000e+00 0.000000e+00
1
Step 627000
Ar -8.658327e-01 0.000000e+00 0.000000e+00
1
Step 628000
Ar -1.150086e+00 0.000000e+00 0.000000e+00
1
Step 629000
Ar -9.649650e-01 0.000000e+00 0.000000e+00
1
Step 630000
Ar -9.440246e-01 0.000000e+00 0.000000e+00
1
Step 631000
Ar -1.052686e+00 0.000000e+00 0.000000e+00
1
Step 632000
Ar -8.656275e-01 0.000000e+00 0.000000e+00
1
Step 633000
Ar -9.650867e-01 0.000000e+00 0.000000e+00
1
Step 634000
Ar -1.027522e+00 0.000000e+00 0.000000e+00
1
Step 635000
Ar -8.542421e-01 0.000000e+00 0.000000e+00
1
Step 636000
Ar -8.578576e-01 0.000000e+00 0.000000e+00
1
Step 637000
Ar -8.596623e-01 0.000000e+00 0.000000e+00
1
Step 638000
Ar -8.595022e-01 0.000000e+00 0.000000e+00
1
Step 639000
Ar -8.612423e-01 0.000000e+00 0.000000e+00
1
Step 640000
Ar -8.640956e-01 0.000000e+00 0.000000e+00
1
Step 641000
Ar -8.564710e-01 0.000000e+00 0.000000e+00
1
Step 642000
Ar -8.604452e-01 0.000000e+00 0.000000e+00
1
Step 643000
Ar -8.550412e-01 0.000000e+00 0.000000e+00
1
Step 644000
Ar -8.497173e-01 0.000000e+00 0.000000e+00
1
Step 645000
Ar -1.066054e+00 0.000000e+00 0.000000e+00
1
Step 646000
Ar -1.145640e+00 0.000000e+00 0.000000e+00
1
Step 647000
Ar -9.375492e-01 0.000000e+00 0.000000e+00
1
Step 648000
Ar -1.113432e+00 0.000000e+00 0.000000e+00
1
Step 649000
Ar -9.270177e-01 0.000000e+00 0.000000e+00
1
Step 650000
Ar -9.891180e-01 0.000000e+00 0.000000e+00
1
Step 651000