1
Step 120000
Ar 9.640590e-01 0.000000e+00 0.000000e+00
1
Step 121000
Ar 1.130912e+00 0.000000e+00 0.000000e+00
1
Step 122000
Ar 1.145354e+00 0.000000e+00 0.000000e+00
1
Step 123000
Ar 1.022585e+00 0.000000e+00 0.000000e+00
1
Step 124000
Ar 1.152960e+00 0.000000e+00 0.000000e+00
1
Step 125000
Ar 9.931478e-01 0.000000e+00 0.000000e+00
1
Step 126000
Ar 8.892065e-01 0.000000e+00 0.000000e+00
1
Step 127000
Ar 9.182034e-01 0.000000e+00 0.000000e+00
1
Step 128000
Ar 8.411609e-01 0.000000e+00 0.000000e+00
1
Step 129000
Ar 9.723067e-01 0.000000e+00 0.000000e+00
1
Step 130000
Ar 9.167157e-01 0.000000e+00 0.000000e+00
1
Step 131000
Ar 9.260077e-01 0.000000e+00 0.000000e+00
1
Step 132000
Ar 9.353322e-01 0.000000e+00 0.000000e+00
1
Step 133000
Ar 9.767044e-01 0.000000e+00 0.000000e+00
1
Step 134000
Ar 9.376863e-01 0.000000e+00 0.000000e+00
1
Step 135000
Ar 9.751791e-01 0.000000e+00 0.000000e+00
1
Step 136000
Ar 1.019470e+00 0.000000e+00 0.000000e+00
1
Step 137000
Ar 1.067443e+00 0.000000e+00 0.000000e+00
1
Step 138000
Ar 1.037860e+00 0.000000e+00 0.000000e+00
1
Step 139000
Ar 1.054984e+00 0.000000e+00 0.000000e+00
1
Step 140000
Ar 1.175577e+00 0.000000e+00 0.000000e+00
1
Step 141000
Ar 8.659344e-01 0.000000e+00 0.000000e+00
1
Step 142000
Ar 7.470598e-01 0.000000e+00 0.000000e+00
1
Step 143000
Ar 7.363863e-01 0.000000e+00 0.000000e+00
1
Step 144000
Ar 6.971855e-01 0.000000e+00 0.000000e+00
1
Step 145000
Ar 7.968433e-01 0.000000e+00 0.000000e+00
1
Step 146000
Ar 9.013622e-01 0.000000e+00 0.000000e+00
1
Step 147000
Ar 8.523638e-01 0.000000e+00 0.000000e+00
1
Step 148000
Ar 8.114192e-01 0.000000e+00 0.000000e+00
1
Step 149000
Ar 8.755589e-01 0.000000e+00 0.000000e+00
1
Step 150000
Ar 8.756744e-01 0.000000e+00 0.000000e+00
1
Step 151000
Ar 8.541269e-01 0.000000e+00 0.000000e+00
1
Step 152000
Ar 8.333863e-01 0.000000e+00 0.000000e+00
1
Step 153000
Ar 1.118110e+00 0.000000e+00 0.000000e+00
1
Step 154000
Ar 1.112064e+00 0.000000e+00 0.000000e+00
1
Step 155000
Ar 1.055088e+00 0.000000e+00 0.000000e+00
1
Step 156000
Ar 1.100186e+00 0.000000e+00 0.000000e+00
1
Step 157000
Ar 1.134852e+00 0.000000e+00 0.000000e+00
1
Step 158000
Ar 1.132405e+00 0.000000e+00 0.000000e+00
1
Step 159000
Ar 1.101674e+00 0.000000e+00 0.000000e+00
1
Step 160000
Ar 1.067504e+00 0.000000e+00 0.000000e+00
1
Step 161000
Ar 1.090648e+00 0.000000e+00 0.000000e+00
1
Step 162000
Ar 1.077943e+00 0.000000e+00 0.000000e+00
1
Step 163000
Ar 1.092520e+00 0.000000e+00 0.000000e+00
1
Step 164000
Ar 1.112609e+00 0.000000e+00 0.000000e+00
1
Step 165000
Ar 1.134239e+00 0.000000e+00 0.000000e+00
1
Step 166000
Ar 1.160533e+00 0.000000e+00 0.000000e+00
1
Step 167000
Ar 1.153210e+00 0.000000e+00 0.000000e+00
1
Step 168000
Ar 1.167529e+00 0.000000e+00 0.000000e+00
1
Step 169000
Ar 1.158969e+00 0.000000e+00 0.000000e+00
1
Step 170000
Ar 1.152334e+00 0.000000e+00 0.000000e+00
1
Step 171000
Ar 9.348670e-01 0.000000e+00 0.000000e+00
1
Step 172000
Ar 9.422679e-01 0.000000e+00 0.000000e+00
1
Step 173000
Ar 9.369702e-01 0.000000e+00 0.000000e+00
1
Step 174000
Ar 9.407829e-01 0.000000e+00 0.000000e+00
1
Step 175000
Ar 9.532276e-01 0.000000e+00 0.000000e+00
1
Step 176000
Ar 9.646126e-01 0.000000e+00 0.000000e+00
1
Step 177000
Ar 1.046816e+00 0.000000e+00 0.000000e+00
1
Step 178000
Ar 1.009388e+00 0.000000e+00 0.000000e+00
1
Step 179000
Ar 9.844679e-01 0.000000e+00 0.000000e+00
1
Step 180000
Ar 1.118003e+00 0.000000e+00 0.000000e+00
1
Step 181000
Ar 1.200363e+00 0.000000e+00 0.000000e+00
1
Step 182000
Ar 1.235088e+00 0.000000e+00 0.000000e+00
1
Step 183000
Ar 1.187676e+00 0.000000e+00 0.000000e+00
1
Step 184000
Ar 1.209760e+00 0.000000e+00 0.000000e+00
1
Step 185000
Ar 1.216839e+00 0.000000e+00 0.000000e+00
1
Step 186000
Ar 8.980900e-01 0.000000e+00 0.000000e+00
1
Step 187000
Ar 9.065856e-01 0.000000e+00 0.000000e+00
1
Step 188000
Ar 8.910405e-01 0.000000e+00 0.000000e+00
1
Step 189000
Ar 9.041743e-01 0.000000e+00 0.000000e+00
1
Step 190000
Ar 1.035750e+00 0.000000e+00 0.000000e+00
1
Step 191000
Ar 9.625689e-01 0.000000e+00 0.000000e+00
1
Step 192000
Ar 1.019340e+00 0.000000e+00 0.000000e+00
1
Step 193000
Ar 1.005784e+00 0.000000e+00 0.000000e+00
1
Step 194000
Ar 1.012888e+00 0.000000e+00 0.000000e+00
1
Step 195000
Ar 1.232060e+00 0.000000e+00 0.000000e+00
1
Step 196000
Ar 1.193439e+00 0.000000e+00 0.000000e+00
1
Step 197000
Ar 9.838934e-01 0.000000e+00 0.000000e+00
1
Step 198000
Ar 9.383017e-01 0.000000e+00 0.000000e+00
1
Step 199000
Ar 8.892823e-01 0.000000e+00 0.000000e+00
1
Step 200000
Ar 9.072123e-01 0.000000e+00 0.000000e+00
1
Step 201000
Ar 8.919184e-01 0.000000e+00 0.000000e+00
1
Step 202000
Ar 8.435649e-01 0.000000e+00 0.000000e+00
1
Step 203000
Ar 8.664090e-01 0.000000e+00 0.000000e+00
1
Step 204000
Ar 8.508292e-01 0.000000e+00 0.000000e+00
1
Step 205000
Ar 8.828129e-01 0.000000e+00 0.000000e+00
1
Step 206000
Ar 9.417453e-01 0.000000e+00 0.000000e+00
1
Step 207000
Ar 9.442922e-01 0.000000e+00 0.000000e+00
1
Step 208000
Ar 9.297074e-01 0.000000e+00 0.000000e+00
1
Step 209000
Ar 9.331036e-01 0.000000e+00 0.000000e+00
1
Step 210000
Ar 9.341541e-01 0.000000e+00 0.000000e+00
1
Step 211000
Ar 1.022554e+00 0.000000e+00 0.000000e+00
1
Step 212000
Ar 1.008864e+00 0.000000e+00 0.000000e+00
1
Step 213000
Ar 1.020946e+00 0.000000e+00 0.000000e+00
1
Step 214000
Ar 8.907840e-01 0.000000e+00 0.000000e+00
1
Step 215000
Ar 8.904414e-01 0.000000e+00 0.000000e+00
1
Step 216000
Ar 8.977864e-01 0.000000e+00 0.000000e+00
1
Step 217000
Ar 1.077351e+00 0.000000e+00 0.000000e+00
1
Step 218000
Ar 1.098880e+00 0.000000e+00 0.000000e+00
1
Step 219000
Ar 1.081958e+00 0.000000e+00 0.000000e+00
1
Step 220000
Ar 1.099164e+00 0.000000e+00 0.000000e+00
1
Step 221000
Ar 1.011051e+00 0.000000e+00 0.000000e+00
1
Step 222000
Ar 1.272362e+00 0.000000e+00 0.000000e+00
1
Step 223000
Ar 1.301649e+00 0.000000e+00 0.000000e+00
1
Step 224000
Ar 1.259881e+00 0.000000e+00 0.000000e+00
1
Step 225000
Ar 1.146942e+00 0.000000e+00 0.000000e+00
1
Step 226000
Ar 1.004941e+00 0.000000e+00 0.000000e+00
1
Step 227000
Ar 1.017551e+00 0.000000e+00 0.000000e+00
1
Step 228000
Ar 1.021068e+00 0.000000e+00 0.000000e+00
1
Step 229000
Ar 1.076749e+00 0.000000e+00 0.000000e+00
1
Step 230000
Ar 1.081620e+00 0.000000e+00 0.000000e+00
1
Step 231000
Ar 1.013927e+00 0.000000e+00 0.000000e+00
1
Step 232000
Ar 1.018755e+00 0.000000e+00 0.000000e+00
1
Step 233000
Ar 1.025116e+00 0.000000e+00 0.000000e+00
1
Step 234000
Ar 1.009872e+00 0.000000e+00 0.000000e+00
1
Step 235000
Ar 1.040311e+00 0.000000e+00 0.000000e+00
1
Step 236000
Ar 1.101277e+00 0.000000e+00 0.000000e+00
1
Step 237000
Ar 1.087562e+00 0.000000e+00 0.000000e+00
1
Step 238000
Ar 1.048060e+00 0.000000e+00 0.000000e+00
1
Step 239000
Ar 1.088692e+00 0.000000e+00 0.000000e+00
1
Step 240000
Ar 1.081145e+00 0.000000e+00 0.000000e+00
1
Step 241000
Ar 1.112109e+00 0.000000e+00 0.000000e+00
1
Step 242000
Ar 1.101800e+00 0.000000e+00 0.000000e+00
1
Step 243000
Ar 1.107752e+00 0.000000e+00 0.000000e+00
1
Step 244000
Ar 1.128511e+00 0.000000e+00 0.000000e+00
1
Step 245000
Ar 1.107769e+00 0.000000e+00 0.000000e+00
1
Step 246000
Ar 1.120845e+00 0.000000e+00 0.000000e+00
1
Step 247000
Ar 1.130053e+00 0.000000e+00 0.000000e+00
1
Step 248000
Ar 9.637937e-01 0.000000e+00 0.000000e+00
1
Step 249000
Ar 9.616886e-01 0.000000e+00 0.000000e+00
1
Step 250000
Ar 9.632726e-01 0.000000e+00 0.000000e+00
1
Step 251000
Ar 1.017830e+00 0.000000e+00 0.000000e+00
1
Step 252000
Ar 1.003813e+00 0.000000e+00 0.000000e+00
1
Step 253000
Ar 1.014329e+00 0.000000e+00 0.000000e+00
1
Step 254000
Ar 1.006033e+00 0.000000e+00 0.000000e+00
1
Step 255000
Ar 1.020679e+00 0.000000e+00 0.000000e+00
1
Step 256000
Ar 8.958387e-01 0.000000e+00 0.000000e+00
1
Step 257000
Ar 9.026352e-01 0.000000e+00 0.000000e+00
1
Step 258000
Ar 1.010133e+00 0.000000e+00 0.000000e+00
1
Step 259000
Ar 1.010575e+00 0.000000e+00 0.000000e+00
1
Step 260000
Ar 9.991822e-01 0.000000e+00 0.000000e+00
1
Step 261000
Ar 9.458502e-01 0.000000e+00 0.000000e+00
1
Step 262000
Ar 9.255099e-01 0.000000e+00 0.000000e+00
1
Step 263000
Ar 9.445172e-01 0.000000e+00 0.000000e+00
1
Step 264000
Ar 9.430990e-01 0.000000e+00 0.000000e+00
1
Step 265000
Ar 9.264539e-01 0.000000e+00 0.000000e+00
1
Step 266000
Ar 1.071869e+00 0.000000e+00 0.000000e+00
1
Step 267000
Ar 1.049563e+00 0.000000e+00 0.000000e+00
1
Step 268000
Ar 1.052186e+00 0.000000e+00 0.000000e+00
1
Step 269000
Ar 8.963873e-01 0.000000e+00 0.000000e+00
1
Step 270000
Ar 8.934034e-01 0.000000e+00 0.000000e+00
1
Step 271000
Ar 7.638171e-01 0.000000e+00 0.000000e+00
1
Step 272000
Ar 4.942869e-01 0.000000e+00 0.000000e+00
1
Step 273000
Ar 4.521303e-01 0.000000e+00 0.000000e+00
1
Step 274000
Ar 4.551026e-01 0.000000e+00 0.000000e+00
1
Step 275000
Ar 7.261895e-01 0.000000e+00 0.000000e+00
1
Step 276000
Ar 6.495074e-01 0.000000e+00 0.000000e+00
1
Step 277000
Ar 8.507728e-01 0.000000e+00 0.000000e+00
1
Step 278000
Ar 8.102530e-01 0.000000e+00 0.000000e+00
1
Step 279000
Ar 7.542621e-01 0.000000e+00 0.000000e+00
1
Step 280000
Ar 7.695896e-01 0.000000e+00 0.000000e+00
1
Step 281000
Ar 8.488464e-01 0.000000e+00 0.000000e+00
1
Step 282000
Ar 8.593522e-01 0.000000e+00 0.000000e+00
1
Step 283000
Ar 8.350587e-01 0.000000e+00 0.000000e+00
1
Step 284000
Ar 8.556282e-01 0.000000e+00 0.000000e+00
1
Step 285000
Ar 8.219296e-01 0.000000e+00 0.000000e+00
1
Step 286000
Ar 7.444688e-01 0.000000e+00 0.000000e+00
1
Step 287000
Ar 8.599343e-01 0.000000e+00 0.000000e+00
1
Step 288000
Ar 7.831488e-01 0.000000e+00 0.000000e+00
1
Step 289000
Ar 7.765243e-01 0.000000e+00 0.000000e+00
1
Step 290000
Ar 7.847807e-01 0.000000e+00 0.000000e+00
1
Step 291000
Ar 7.491427e-01 0.000000e+00 0.000000e+00
1
Step 292000
Ar 7.542277e-01 0.000000e+00 0.000000e+00
1
Step 293000
Ar 7.502153e-01 0.000000e+00 0.000000e+00
1
Step 294000
Ar 7.556997e-01 0.000000e+00 0.000000e+00
1
Step 295000
Ar 7.589925e-01 0.000000e+00 0.000000e+00
1
Step 296000
Ar 6.579529e-01 0.000000e+00 0.000000e+00
1
Step 297000
Ar 6.312993e-01 0.000000e+00 0.000000e+00
1
Step 298000
Ar 6.989035e-01 0.000000e+00 0.000000e+00
1
Step 299000
Ar 7.022888e-01 0.000000e+00 0.000000e+00
1
Step 300000
Ar 5.024256e-01 0.000000e+00 0.000000e+00
1
Step 301000
Ar -9.453014e-01 0.000000e+00 0.000000e+00
1
Step 302000
Ar -8.299329e-01 0.000000e+00 0.000000e+00
1
Step 303000
Ar -9.935311e-01 0.000000e+00 0.000000e+00
1
Step 304000
Ar -9.401087e-01 0.000000e+00 0.000000e+00
1
Step 305000
Ar -9.870623e-01 0.000000e+00 0.000000e+00
1
Step 306000
Ar -1.067323e+00 0.000000e+00 0.000000e+00
1
Step 307000
Ar -1.050329e+00 0.000000e+00 0.000000e+00
1
Step 308000
Ar -1.066004e+00 0.000000e+00 0.000000e+00
1
Step 309000
Ar -1.136424e+00 0.000000e+00 0.000000e+00
1
Step 310000
Ar -9.330490e-01 0.000000e+00 0.000000e+00
1
Step 311000
Ar -6.693721e-01 0.000000e+00 0.000000e+00
1
Step 312000
Ar -8.249921e-01 0.000000e+00 0.000000e+00
1
Step 313000
Ar -8.971259e-01 0.000000e+00 0.000000e+00
1
Step 314000
Ar -9.137929e-01 0.000000e+00 0.000000e+00
1
Step 315000
Ar -8.933861e-01 0.000000e+00 0.000000e+00
1
Step 316000
Ar -1.083009e+00 0.000000e+00 0.000000e+00
1
Step 317000
Ar -1.017352e+00 0.000000e+00 0.000000e+00
1
Step 318000
Ar -1.053788e+00 0.000000e+00 0.000000e+00
1
Step 319000
Ar -1.055692e+00 0.000000e+00 0.000000e+00
1
Step 320000
Ar -9.998498e-01 0.000000e+00 0.000000e+00
1
Step 321000
Ar -6.020141e-01 0.000000e+00 0.000000e+00
1
Step 322000
Ar -8.459599e-01 0.000000e+00 0.000000e+00
1
Step 323000
Ar -8.177312e-01 0.000000e+00 0.000000e+00
1
Step 324000
Ar -8.485729e-01 0.000000e+00 0.000000e+00
1
Step 325000
Ar -8.463175e-01 0.000000e+00 0.000000e+00
1
Step 326000
Ar -7.984786e-01 0.000000e+00 0.000000e+00
1
Step 327000
Ar -7.900155e-01 0.000000e+00 0.000000e+00
1
Step 328000
Ar -7.965659e-01 0.000000e+00 0.000000e+00
1
Step 329000
Ar -7.796208e-01 0.000000e+00 0.000000e+00
1
Step 330000
Ar -5.674036e-01 0.000000e+00 0.000000e+00
1
Step 331000
Ar -5.145015e-01 0.000000e+00 0.000000e+00
1
Step 332000
Ar -5.131465e-01 0.000000e+00 0.000000e+00
1
Step 333000
Ar -4.943233e-01 0.000000e+00 0.000000e+00
1
Step 334000
Ar -5.028822e-01 0.000000e+00 0.000000e+00
1
Step 335000
Ar -5.065054e-01 0.000000e+00 0.000000e+00
1
Step 336000
Ar -1.810073e-01 0.000000e+00 0.000000e+00
1
Step 337000
Ar -5.435449e-01 0.000000e+00 0.000000e+00
1
Step 338000
Ar -5.452186e-01 0.000000e+00 0.000000e+00
1
Step 339000
Ar -5.437143e-01 0.000000e+00 0.000000e+00
1
Step 340000
Ar -5.220620e-01 0.000000e+00 0.000000e+00
1
Step 341000
Ar -5.540731e-01 0.000000e+00 0.000000e+00
1
Step 342000
Ar -5.321642e-01 0.000000e+00 0.000000e+00
1
Step 343000
Ar -5.379262e-01 0.000000e+00 0.000000e+00
1
Step 344000
Ar -5.383779e-01 0.000000e+00 0.000000e+00
1
Step 345000
Ar -7.334625e-01 0.000000e+00 0.000000e+00
1
Step 346000
Ar -8.248193e-01 0.000000e+00 0.000000e+00
1
Step 347000
Ar -7.701165e-01 0.000000e+00 0.000000e+00
1
Step 348000
Ar -7.939063e-01 0.000000e+00 0.000000e+00
1
Step 349000
Ar -7.431930e-01 0.000000e+00 0.000000e+00
1
Step 350000
Ar -7.950079e-01 0.000000e+00 0.000000e+00
1
Step 351000
Ar -8.769963e-01 0.000000e+00 0.000000e+00
1
Step 352000
Ar -8.725503e-01 0.000000e+00 0.000000e+00
1
Step 353000
Ar -8.645866e-01 0.000000e+00 0.000000e+00
1
Step 354000
Ar -8.632013e-01 0.000000e+00 0.000000e+00
1
Step 355000
Ar -8.706846e-01 0.000000e+00 0.000000e+00
1
Step 356000
Ar -1.071853e+00 0.000000e+00 0.000000e+00
1
Step 357000
Ar -1.162754e+00 0.000000e+00 0.000000e+00
1
Step 358000
Ar -1.175363e+00 0.000000e+00 0.000000e+00
1
Step 359000
Ar -1.134410e+00 0.000000e+00 0.000000e+00
1
Step 360000
Ar -1.109522e+00 0.000000e+00 0.000000e+00
1
Step 361000
Ar -1.055760e+00 0.000000e+00 0.000000e+00
1
Step 362000
Ar -1.034204e+00 0.000000e+00 0.000000e+00
1
Step 363000
Ar -1.020982e+00 0.000000e+00 0.000000e+00
1
Step 364000
Ar -1.053902e+00 0.000000e+00 0.000000e+00
1
Step 365000
Ar -1.025165e+00 0.000000e+00 0.000000e+00
1
Step 366000
Ar -9.580293e-01 0.000000e+00 0.000000e+00
1
Step 367000
Ar -9.434663e-01 0.000000e+00 0.000000e+00
1
Step 368000
Ar -9.703429e-01 0.000000e+00 0.000000e+00
1
Step 369000
Ar -9.623028e-01 0.000000e+00 0.000000e+00
1
Step 370000
Ar -1.053312e+00 0.000000e+00 0.000000e+00
1
Step 371000
Ar -1.176818e+00 0.000000e+00 0.000000e+00
1
Step 372000
Ar -1.211272e+00 0.000000e+00 0.000000e+00
1
Step 373000
Ar -1.120229e+00 0.000000e+00 0.000000e+00
1
Step 374000
Ar -1.136422e+00 0.000000e+00 0.000000e+00
1
Step 375000
Ar -1.200926e+00 0.000000e+00 0.000000e+00
1
Step 376000
Ar -1.218632e+00 0.000000e+00 0.000000e+00
1
Step 377000
Ar -1.214123e+00 0.000000e+00 0.000000e+00
1
Step 378000
Ar -1.254476e+00 0.000000e+00 0.000000e+00
1
Step 379000
Ar -1.173217e+00 0.000000e+00 0.000000e+00
1
Step 380000
Ar -1.155328e+00 0.000000e+00 0.000000e+00
1
Step 381000
Ar -1.174588e+00 0.000000e+00 0.000000e+00
1
Step 382000
Ar -1.182653e+00 0.000000e+00 0.000000e+00
1
Step 383000
Ar -1.169688e+00 0.000000e+00 0.000000e+00
1
Step 384000
Ar -1.182808e+00 0.000000e+00 0.000000e+00
1
Step 385000
Ar -1.187815e+00 0.000000e+00 0.000000e+00
1
Step 386000
Ar -9.232166e-01 0.000000e+00 0.000000e+00
1
Step 387000
Ar -9.060473e-01 0.000000e+00 0.000000e+00
1
Step 388000
Ar -9.767923e-01 0.000000e+00 0.000000e+00
1
Step 389000
Ar -9.490008e-01 0.000000e+00 0.000000e+00
1
Step 390000
Ar -9.686063e-01 0.000000e+00 0.000000e+00
1
Step 391000
Ar -9.134331e-01 0.000000e+00 0.000000e+00
1
Step 392000
Ar -9.082114e-01 0.000000e+00 0.000000e+00
1
Step 393000
Ar -9.123627e-01 0.000000e+00 0.000000e+00
1
Step 394000
Ar -9.089316e-01 0.000000e+00 0.000000e+00
1
Step 395000
Ar -9.120449e-01 0.000000e+00 0.000000e+00
1
Step 396000
Ar -9.293321e-01 0.000000e+00 0.000000e+00
1
Step 397000
Ar -9.195701e-01 0.000000e+00 0.000000e+00
1
Step 398000
Ar -9.461546e-01 0.000000e+00 0.000000e+00
1
Step 399000
Ar -9.423297e-01 0.000000e+00 0.000000e+00
1
Step 400000
Ar -9.558821e-01 0.000000e+00 0.000000e+00
1
Step 401000
Ar -8.104193e-01 0.000000e+00 0.000000e+00
1
Step 402000
Ar -8.273850e-01 0.000000e+00 0.000000e+00
1
Step 403000
Ar -8.091234e-01 0.000000e+00 0.000000e+00
1
Step 404000
Ar -8.082193e-01 0.000000e+00 0.000000e+00
1
Step 405000
Ar -8.061870e-01 0.000000e+00 0.000000e+00
1
Step 406000
Ar -9.864111e-01 0.000000e+00 0.000000e+00
1
Step 407000
Ar -9.511117e-01 0.000000e+00 0.000000e+00
1
Step 408000
Ar -9.445330e-01 0.000000e+00 0.000000e+00
1
Step 409000
Ar -9.460802e-01 0.000000e+00 0.000000e+00
1
Step 410000
Ar -1.039930e+00 0.000000e+00 0.000000e+00
1
Step 411000
Ar -8.172341e-01 0.000000e+00 0.000000e+00
1
Step 412000
Ar -8.162476e-01 0.000000e+00 0.000000e+00
1
Step 413000
Ar -8.162249e-01 0.000000e+00 0.000000e+00
1
Step 414000
Ar -8.218188e-01 0.000000e+00 0.000000e+00
1
Step 415000
Ar -8.313345e-01 0.000000e+00 0.000000e+00
1
Step 416000
Ar -9.488792e-01 0.000000e+00 0.000000e+00
1
Step 417000
Ar -9.450034e-01 0.000000e+00 0.000000e+00
1
Step 418000
Ar -9.489650e-01 0.000000e+00 0.000000e+00
1
Step 419000
Ar -1.098593e+00 0.000000e+00 0.000000e+00
1
Step 420000
Ar -1.038920e+00 0.000000e+00 0.000000e+00
1
Step 421000
Ar -8.573363e-01 0.000000e+00 0.000000e+00
1
Step 422000
Ar -8.617075e-01 0.000000e+00 0.000000e+00
1
Step 423000
Ar -8.572484e-01 0.000000e+00 0.000000e+00
1
Step 424000
Ar -8.552712e-01 0.000000e+00 0.000000e+00
1
Step 425000
Ar -8.549969e-01 0.000000e+00 0.000000e+00
1
Step 426000
Ar -9.829160e-01 0.000000e+00 0.000000e+00
1
Step 427000
Ar -9.271306e-01 0.000000e+00 0.000000e+00
1
Step 428000
Ar -9.157529e-01 0.000000e+00 0.000000e+00
1
Step 429000
Ar -9.766311e-01 0.000000e+00 0.000000e+00
1
Step 430000
Ar -9.488303e-01 0.000000e+00 0.000000e+00
1
Step 431000
Ar -9.034340e-01 0.000000e+00 0.000000e+00
1
Step 432000
Ar -9.288401e-01 0.000000e+00 0.000000e+00
1
Step 433000
Ar -9.181149e-01 0.000000e+00 0.000000e+00
1
Step 434000
Ar -9.253740e-01 0.000000e+00 0.000000e+00
1
Step 435000
Ar -8.979078e-01 0.000000e+00 0.000000e+00
1
Step 436000
Ar -9.278221e-01 0.000000e+00 0.000000e+00
1
Step 437000
Ar -9.378610e-01 0.000000e+00 0.000000e+00
1
Step 438000
Ar -1.018993e+00 0.000000e+00 0.000000e+00
1
Step 439000
Ar -1.008346e+00 0.000000e+00 0.000000e+00
1
Step 440000
Ar -1.020311e+00 0.000000e+00 0.000000e+00
1
Step 441000
Ar -9.793399e-01 0.000000e+00 0.000000e+00
1
Step 442000
Ar -1.010783e+00 0.000000e+00 0.000000e+00
1
Step 443000
Ar -9.815483e-01 0.000000e+00 0.000000e+00
1
Step 444000
Ar -9.780284e-01 0.000000e+00 0.000000e+00
1
Step 445000
Ar -9.794633e-01 0.000000e+00 0.000000e+00
1
Step 446000
Ar -9.654485e-01 0.000000e+00 0.000000e+00
1
Step 447000
Ar -9.635435e-01 0.000000e+00 0.000000e+00
1
Step 448000
Ar -1.010670e+00 0.000000e+00 0.000000e+00
1
Step 449000
Ar -1.014512e+00 0.000000e+00 0.000000e+00
1
Step 450000
Ar -1.014234e+00 0.000000e+00 0.000000e+00
1
Step 451000
Ar -9.051520e-01 0.000000e+00 0.000000e+00
1
Step 452000
Ar -9.033624e-01 0.000000e+00 0.000000e+00
1
Step 453000
Ar -9.224866e-01 0.000000e+00 0.000000e+00
1
Step 454000
Ar -9.398147e-01 0.000000e+00 0.000000e+00
1
Step 455000
Ar -9.243929e-01 0.000000e+00 0.000000e+00
1
Step 456000
Ar -9.366434e-01 0.000000e+00 0.000000e+00
1
Step 457000
Ar -9.054136e-01 0.000000e+00 0.000000e+00
1
Step 458000
Ar -9.424520e-01 0.000000e+00 0.000000e+00
1
Step 459000
Ar -9.784292e-01 0.000000e+00 0.000000e+00
1
Step 460000
Ar -9.734522e-01 0.000000e+00 0.000000e+00
1
Step 461000
Ar -8.194809e-01 0.000000e+00 0.000000e+00
1
Step 462000
Ar -7.778747e-01 0.000000e+00 0.000000e+00
1
Step 463000
Ar -7.637099e-01 0.000000e+00 0.000000e+00
1
Step 464000
Ar -7.662699e-01 0.000000e+00 0.000000e+00
1
Step 465000
Ar -7.813480e-01 0.000000e+00 0.000000e+00
1
Step 466000
Ar -6.804155e-01 0.000000e+00 0.000000e+00
1
Step 467000
Ar -7.181081e-01 0.000000e+00 0.000000e+00
1
Step 468000
Ar -7.692137e-01 0.000000e+00 0.000000e+00
1
Step 469000
Ar -7.410578e-01 0.000000e+00 0.000000e+00
1
Step 470000
Ar -7.644531e-01 0.000000e+00 0.000000e+00
1
Step 471000
Ar -6.710142e-01 0.000000e+00 0.000000e+00
1
Step 472000
Ar -7.718582e-01 0.000000e+00 0.000000e+00
1
Step 473000
Ar -9.673270e-01 0.000000e+00 0.000000e+00
1
Step 474000
Ar -9.380485e-01 0.000000e+00 0.000000e+00
1
Step 475000
Ar -9.446706e-01 0.000000e+00 0.000000e+00
1
Step 476000
Ar -6.518185e-01 0.000000e+00 0.000000e+00
1
Step 477000
Ar -6.534333e-01 0.000000e+00 0.000000e+00
1
Step 478000
Ar -6.377630e-01 0.000000e+00 0.000000e+00
1
Step 479000
Ar -5.891273e-01 0.000000e+00 0.000000e+00
1
Step 480000
Ar -6.239645e-01 0.000000e+00 0.000000e+00
1
Step 481000
Ar -4.466047e-01 0.000000e+00 0.000000e+00
1
Step 482000
Ar -4.230217e-01 0.000000e+00 0.000000e+00
1
Step 483000
Ar -4.797911e-01 0.000000e+00 0.000000e+00
1
Step 484000
Ar -5.381501e-01 0.000000e+00 0.000000e+00
1
Step 485000
Ar -5.361731e-01 0.000000e+00 0.000000e+00
1
Step 486000
Ar -5.491054e-01 0.000000e+00 0.000000e+00
1
Step 487000
Ar -5.480514e-01 0.000000e+00 0.000000e+00
1
Step 488000
Ar -5.527978e-01 0.000000e+00 0.000000e+00
1
Step 489000
Ar -5.568293e-01 0.000000e+00 0.000000e+00
1
Step 490000
Ar -5.503353e-01 0.000000e+00 0.000000e+00
1
Step 491000
Ar -5.744730e-01 0.000000e+00 0.000000e+00
1
Step 492000
Ar -6.114118e-01 0.000000e+00 0.000000e+00
1
Step 493000
Ar -6.767429e-01 0.000000e+00 0.000000e+00
1
Step 494000
Ar -7.179851e-01 0.000000e+00 0.000000e+00
1
Step 495000
Ar -7.080302e-01 0.000000e+00 0.000000e+00
1
Step 496000
Ar -7.775783e-01 0.000000e+00 0.000000e+00
1
Step 497000
Ar -7.465326e-01 0.000000e+00 0.000000e+00
1
Step 498000
Ar -7.525814e-01 0.000000e+00 0.000000e+00
1
Step 499000
Ar -7.467496e-01 0.000000e+00 0.000000e+00
1
Step 500000
Ar -7.548756e-01 0.000000e+00 0.000000e+00
1
Step 501000
Ar -6.856743e-01 0.000000e+00 0.000000e+00
1
Step 502000
Ar -9.182937e-01 0.000000e+00 0.000000e+00
1
Step 503000
Ar -9.022028e-01 0.000000e+00 0.000000e+00
1
Step 504000
Ar -8.182196e-01 0.000000e+00 0.000000e+00
1
Step 505000
Ar -8.198248e-01 0.000000e+00 0.000000e+00
1
Step 506000
Ar -8.662920e-01 0.000000e+00 0.000000e+00
1
Step 507000
Ar -8.842833e-01 0.000000e+00 0.000000e+00
1
Step 508000
Ar -8.819514e-01 0.000000e+00 0.000000e+00
1
Step 509000
Ar -8.644863e-01 0.000000e+00 0.000000e+00
1
Step 510000
Ar -8.855438e-01 0.000000e+00 0.000000e+00
1
Step 511000
Ar -8.735783e-01 0.000000e+00 0.000000e+00
1
Step 512000
Ar -8.735925e-01 0.000000e+00 0.000000e+00
1
Step 513000
Ar -7.731661e-01 0.000000e+00 0.000000e+00
1
Step 514000
Ar -7.867941e-01 0.000000e+00 0.000000e+00
1
Step 515000
Ar -8.335475e-01 0.000000e+00 0.000000e+00
1
Step 516000
Ar -2.637656e-01 0.000000e+00 0.000000e+00
1
Step 517000
Ar -4.386527e-01 0.000000e+00 0.000000e+00
1
Step 518000
Ar -4.760944e-01 0.000000e+00 0.000000e+00
1
Step 519000
Ar -4.800287e-01 0.000000e+00 0.000000e+00
1
Step 520000
Ar -4.675690e-01 0.000000e+00 0.000000e+00
1
Step 521000
Ar -6.661807e-01 0.000000e+00 0.000000e+00
1
Step 522000
Ar -6.980231e-01 0.000000e+00 0.000000e+00
1
Step 523000
Ar -6.953288e-01 0.000000e+00 0.000000e+00
1
Step 524000
Ar -7.199704e-01 0.000000e+00 0.000000e+00
1
Step 525000
Ar -6.848225e-01 0.000000e+00 0.000000e+00
1
Step 526000
Ar -6.769086e-01 0.000000e+00 0.000000e+00
1
Step 527000
Ar -6.371125e-01 0.000000e+00 0.000000e+00
1
Step 528000
Ar -6.675510e-01 0.000000e+00 0.000000e+00
1
Step 529000
Ar -6.486282e-01 0.000000e+00 0.000000e+00
1
Step 530000
Ar -6.520653e-01 0.000000e+00 0.000000e+00
1
Step 531000
Ar -6.715001e-01 0.000000e+00 0.000000e+00
1
Step 532000
Ar -6.700185e-01 0.000000e+00 0.000000e+00
1
Step 533000
Ar -6.918168e-01 0.000000e+00 0.000000e+00
1
Step 534000
Ar -7.019064e-01 0.000000e+00 0.000000e+00
1
Step 535000
Ar -7.248652e-01 0.000000e+00 0.000000e+00
1
Step 536000
Ar -6.683724e-01 0.000000e+00 0.000000e+00
1
Step 537000
Ar -6.692060e-01 0.000000e+00 0.000000e+00
1
Step 538000
Ar -6.640315e-01 0.000000e+00 0.000000e+00
1
Step 539000
Ar -5.979744e-01 0.000000e+00 0.000000e+00
1
Step 540000
Ar -5.051471e-01 0.000000e+00 0.000000e+00
1
Step 541000
Ar -5.776066e-01 0.000000e+00 0.000000e+00
1
Step 542000
Ar -6.116494e-01 0.000000e+00 0.000000e+00
1
Step 543000
Ar -5.779068e-01 0.000000e+00 0.000000e+00
1
Step 544000
Ar -5.912351e-01 0.000000e+00 0.000000e+00
1
Step 545000
Ar -5.784089e-01 0.000000e+00 0.000000e+00
1
Step 546000
Ar -6.336668e-01 0.000000e+00 0.000000e+00
1
Step 547000
Ar -6.427921e-01 0.000000e+00 0.000000e+00
1
Step 548000
Ar -6.325504e-01 0.000000e+00 0.000000e+00
1
Step 549000
Ar -6.674890e-01 0.000000e+00 0.000000e+00
1
Step 550000
Ar -6.702202e-01 0.000000e+00 0.000000e+00
1
Step 551000
Ar -6.432047e-01 0.000000e+00 0.000000e+00
1
Step 552000
Ar -7.504015e-01 0.000000e+00 0.000000e+00
1
Step 553000
Ar -8.119414e-01 0.000000e+00 0.000000e+00
1
Step 554000
Ar -7.729968e-01 0.000000e+00 0.000000e+00
1
Step 555000
Ar -7.883244e-01 0.000000e+00 0.000000e+00
1
Step 556000
Ar -8.118325e-01 0.000000e+00 0.000000e+00
1
Step 557000
Ar -8.107324e-01 0.000000e+00 0.000000e+00
1
Step 558000
Ar -6.127133e-01 0.000000e+00 0.000000e+00
1
Step 559000
Ar -6.418006e-01 0.000000e+00 0.000000e+00
1
Step 560000
Ar -6.604805e-01 0.000000e+00 0.000000e+00
1
Step 561000
Ar -6.951523e-01 0.000000e+00 0.000000e+00
1
Step 562000
Ar -6.930304e-01 0.000000e+00 0.000000e+00
1
Step 563000
Ar -6.960900e-01 0.000000e+00 0.000000e+00
1
Step 564000
Ar -6.999847e-01 0.000000e+00 0.000000e+00
1
Step 565000
Ar -7.195863e-01 0.000000e+00 0.000000e+00
1
Step 566000
Ar -6.942951e-01 0.000000e+00 0.000000e+00
1
Step 567000
Ar -6.947355e-01 0.000000e+00 0.000000e+00
1
Step 568000
Ar -6.820235e-01 0.000000e+00 0.000000e+00
1
Step 569000
Ar -6.947494e-01 0.000000e+00 0.000000e+00
1
Step 570000
Ar -6.763510e-01 0.000000e+00 0.000000e+00
1
Step 571000
Ar -6.925295e-01 0.000000e+00 0.000000e+00
1
Step 572000
Ar -7.003930e-01 0.000000e+00 0.000000e+00
1
Step 573000
Ar -7.003926e-01 0.000000e+00 0.000000e+00
1
Step 574000
Ar -6.954132e-01 0.000000e+00 0.000000e+00
1
Step 575000
Ar -7.000735e-01 0.000000e+00 0.000000e+00
1
Step 576000
Ar -6.930063e-01 0.000000e+00 0.000000e+00
1
Step 577000
Ar -6.949832e-01 0.000000e+00 0.000000e+00
1
Step 578000
Ar -6.408391e-01 0.000000e+00 0.000000e+00
1
Step 579000
Ar -6.327078e-01 0.000000e+00 0.000000e+00
1
Step 580000
Ar -6.371342e-01 0.000000e+00 0.000000e+00
1
Step 581000
Ar -5.869215e-01 0.000000e+00 0.000000e+00
1
Step 582000
Ar -6.008408e-01 0.000000e+00 0.000000e+00
1
Step 583000
Ar -6.157870e-01 0.000000e+00 0.000000e+00
1
Step 584000
Ar -6.003301e-01 0.000000e+00 0.000000e+00
1
Step 585000
Ar -6.489470e-01 0.000000e+00 0.000000e+00
1
Step 586000
Ar -6.167533e-01 0.000000e+00 0.000000e+00
1
Step 587000
Ar -6.116847e-01 0.000000e+00 0.000000e+00
1
Step 588000
Ar -5.900231e-01 0.000000e+00 0.000000e+00
1
Step 589000
Ar -6.030147e-01 0.000000e+00 0.000000e+00
1
Step 590000
Ar -6.119619e-01 0.000000e+00 0.000000e+00
1
Step 591000
Ar -5.971850e-01 0.000000e+00 0.000000e+00
1
Step 592000
Ar -5.976979e-01 0.000000e+00 0.000000e+00
1
Step 593000
Ar -5.975010e-01 0.000000e+00 0.000000e+00
1
Step 594000
Ar -5.997128e-01 0.000000e+00 0.000000e+00
1
Step 595000
Ar -5.914875e-01 0.000000e+00 0.000000e+00
1
Step 596000
Ar -5.262104e-01 0.000000e+00 0.000000e+00
1
Step 597000
Ar -6.279328e-01 0.000000e+00 0.000000e+00
1
Step 598000
Ar -5.571409e-01 0.000000e+00 0.000000e+00
1
Step 599000
Ar -5.793391e-01 0.000000e+00 0.000000e+00
1
Step 600000
Ar -6.040876e-01 0.000000e+00 0.000000e+00
1
Step 601000
Ar -8.554870e-01 0.000000e+00 0.000000e+00
1
Step 602000
Ar -8.775110e-01 0.000000e+00 0.000000e+00
1
Step 603000
Ar -8.787136e-01 0.000000e+00 0.000000e+00
1
Step 604000
Ar -8.602893e-01 0.000000e+00 0.000000e+00
1
Step 605000
Ar -7.652481e-01 0.000000e+00 0.000000e+00
1
Step 606000
Ar -8.584692e-01 0.000000e+00 0.000000e+00
1
Step 607000
Ar -8.592634e-01 0.000000e+00 0.000000e+00
1
Step 608000
Ar -8.784230e-01 0.000000e+00 0.000000e+00
1
Step 609000
Ar -8.438353e-01 0.000000e+00 0.000000e+00
1
Step 610000
Ar -8.608913e-01 0.000000e+00 0.000000e+00
1
Step 611000
Ar -9.122459e-01 0.000000e+00 0.000000e+00
1
Step 612000
Ar -9.060689e-01 0.000000e+00 0.000000e+00
1
Step 613000
Ar -9.094049e-01 0.000000e+00 0.000000e+00
1
Step 614000
Ar -9.174604e-01 0.000000e+00 0.000000e+00
1
Step 615000
Ar -9.136718e-01 0.000000e+00 0.000000e+00
1
Step 616000
Ar -1.007358e+00 0.000000e+00 0.000000e+00
1
Step 617000
Ar -9.973105e-01 0.000000e+00 0.000000e+00
1
Step 618000
Ar -9.864669e-01 0.000000e+00 0.000000e+00
1
Step 619000
Ar -1.008096e+00 0.000000e+00 0.000000e+00
1
Step 620000
Ar -1.014767e+00 0.000000e+00 0.000000e+00
1
Step 621000
Ar -3.836437e-01 0.000000e+00 0.000000e+00
1
Step 622000
Ar -4.859023e-01 0.000000e+00 0.000000e+00
1
Step 623000
Ar -4.832507e-01 0.000000e+00 0.000000e+00
1
Step 624000
Ar -4.918104e-01 0.000000e+00 0.000000e+00
1
Step 625000
Ar -4.837809e-01 0.000000e+00 0.000000e+00
1
Step 626000
Ar -4.200240e-01 0.000000e+00 0.000000e+00
1
Step 627000
Ar 3.670627e-01 0.000000e+00 0.000000e+00
1
Step 628000
Ar 4.280540e-01 0.000000e+00 0.000000e+00
1
Step 629000
Ar 5.450044e-01 0.000000e+00 0.000000e+00
1
Step 630000
Ar 6.164316e-01 0.000000e+00 0.000000e+00
1
Step 631000
Ar 5.535570e-01 0.000000e+00 0.000000e+00
1
Step 632000
Ar 5.671377e-01 0.000000e+00 0.000000e+00
1
Step 633000
Ar 7.417655e-01 0.000000e+00 0.000000e+00
1
Step 634000
Ar 7.073077e-01 0.000000e+00 0.000000e+00
1
Step 635000
Ar 6.423261e-01 0.000000e+00 0.000000e+00
1
Step 636000
Ar 8.511096e-01 0.000000e+00 0.000000e+00
1
Step 637000
Ar 8.648361e-01 0.000000e+00 0.000000e+00
1
Step 638000
Ar 8.440696e-01 0.000000e+00 0.000000e+00
1
Step 639000
Ar 8.537606e-01 0.000000e+00 0.000000e+00
1
Step 640000
Ar 8.366180e-01 0.000000e+00 0.000000e+00
1
Step 641000
Ar 8.118669e-01 0.000000e+00 0.000000e+00
1
Step 642000
Ar 8.106601e-01 0.000000e+00 0.000000e+00
1
Step 643000
Ar 8.050512e-01 0.000000e+00 0.000000e+00
1
Step 644000
Ar 8.094851e-01 0.000000e+00 0.000000e+00
1
Step 645000
Ar 8.125806e-01 0.000000e+00 0.000000e+00
1
Step 646000
Ar 6.656630e-01 0.000000e+00 0.000000e+00
1
Step 647000
Ar 6.654600e-01 0.000000e+00 0.000000e+00
1
Step 648000
Ar 7.004512e-01 0.000000e+00 0.000000e+00
1
Step 649000