1
Step 120000
Ar 3.177870e-02 0.000000e+00 0.000000e+00
1
Step 121000
Ar -3.946325e-02 0.000000e+00 0.000000e+00
1
Step 122000
Ar 3.951146e-02 0.000000e+00 0.000000e+00
1
Step 123000
Ar -6.263295e-03 0.000000e+00 0.000000e+00
1
Step 124000
Ar 2.219342e-03 0.000000e+00 0.000000e+00
1
Step 125000
Ar -1.128198e-02 0.000000e+00 0.000000e+00
1
Step 126000
Ar -2.313586e-02 0.000000e+00 0.000000e+00
1
Step 127000
Ar 7.120785e-03 0.000000e+00 0.000000e+00
1
Step 128000
Ar -7.898740e-02 0.000000e+00 0.000000e+00
1
Step 129000
Ar -3.772305e-02 0.000000e+00 0.000000e+00
1
Step 130000
Ar -9.394036e-03 0.000000e+00 0.000000e+00
1
Step 131000
Ar 4.868000e-02 0.000000e+00 0.000000e+00
1
Step 132000
Ar 4.340034e-02 0.000000e+00 0.000000e+00
1
Step 133000
Ar 7.866904e-02 0.000000e+00 0.000000e+00
1
Step 134000
Ar -1.701755e-02 0.000000e+00 0.000000e+00
1
Step 135000
Ar 1.045526e-02 0.000000e+00 0.000000e+00
1
Step 136000
Ar 4.736292e-02 0.000000e+00 0.000000e+00
1
Step 137000
Ar 2.586770e-02 0.000000e+00 0.000000e+00
1
Step 138000
Ar 1.658190e-02 0.000000e+00 0.000000e+00
1
Step 139000
Ar 1.609224e-02 0.000000e+00 0.000000e+00
1
Step 140000
Ar -1.968099e-02 0.000000e+00 0.000000e+00
1
Step 141000
Ar 2.326851e-02 0.000000e+00 0.000000e+00
1
Step 142000
Ar -5.148954e-02 0.000000e+00 0.000000e+00
1
Step 143000
Ar 3.539705e-02 0.000000e+00 0.000000e+00
1
Step 144000
Ar 3.303810e-02 0.000000e+00 0.000000e+00
1
Step 145000
Ar -4.869893e-03 0.000000e+00 0.000000e+00
1
Step 146000
Ar -1.039788e-02 0.000000e+00 0.000000e+00
1
Step 147000
Ar -1.072603e-02 0.000000e+00 0.000000e+00
1
Step 148000
Ar -3.337140e-03 0.000000e+00 0.000000e+00
1
Step 149000
Ar -4.902736e-02 0.000000e+00 0.000000e+00
1
Step 150000
Ar 2.731680e-02 0.000000e+00 0.000000e+00
1
Step 151000
Ar -6.188609e-02 0.000000e+00 0.000000e+00
1
Step 152000
Ar 4.368768e-03 0.000000e+00 0.000000e+00
1
Step 153000
Ar 6.896998e-02 0.000000e+00 0.000000e+00
1
Step 154000
Ar 3.231965e-03 0.000000e+00 0.000000e+00
1
Step 155000
Ar 1.597026e-02 0.000000e+00 0.000000e+00
1
Step 156000
Ar -1.108404e-02 0.000000e+00 0.000000e+00
1
Step 157000
Ar -1.209442e-02 0.000000e+00 0.000000e+00
1
Step 158000
Ar -1.376791e-02 0.000000e+00 0.000000e+00
1
Step 159000
Ar 4.189424e-02 0.000000e+00 0.000000e+00
1
Step 160000
Ar 1.872227e-02 0.000000e+00 0.000000e+00
1
Step 161000
Ar -3.285825e-03 0.000000e+00 0.000000e+00
1
Step 162000
Ar -2.080802e-02 0.000000e+00 0.000000e+00
1
Step 163000
Ar 3.649223e-02 0.000000e+00 0.000000e+00
1
Step 164000
Ar -4.491803e-02 0.000000e+00 0.000000e+00
1
Step 165000
Ar 4.599026e-02 0.000000e+00 0.000000e+00
1
Step 166000
Ar -8.297949e-02 0.000000e+00 0.000000e+00
1
Step 167000
Ar -1.622992e-02 0.000000e+00 0.000000e+00
1
Step 168000
Ar -3.462507e-02 0.000000e+00 0.000000e+00
1
Step 169000
Ar 1.302752e-02 0.000000e+00 0.000000e+00
1
Step 170000
Ar -8.577407e-03 0.000000e+00 0.000000e+00
1
Step 171000
Ar -2.298008e-02 0.000000e+00 0.000000e+00
1
Step 172000
Ar -1.120182e-02 0.000000e+00 0.000000e+00
1
Step 173000
Ar -5.486505e-03 0.000000e+00 0.000000e+00
1
Step 174000
Ar 9.909399e-03 0.000000e+00 0.000000e+00
1
Step 175000
Ar -1.301637e-03 0.000000e+00 0.000000e+00
1
Step 176000
Ar 4.107984e-02 0.000000e+00 0.000000e+00
1
Step 177000
Ar 1.366733e-03 0.000000e+00 0.000000e+00
1
Step 178000
Ar 5.799546e-02 0.000000e+00 0.000000e+00
1
Step 179000
Ar 6.049869e-02 0.000000e+00 0.000000e+00
1
Step 180000
Ar -9.105374e-03 0.000000e+00 0.000000e+00
1
Step 181000
Ar 1.658572e-02 0.000000e+00 0.000000e+00
1
Step 182000
Ar -1.073613e-02 0.000000e+00 0.000000e+00
1
Step 183000
Ar 3.341804e-02 0.000000e+00 0.000000e+00
1
Step 184000
Ar -2.709042e-02 0.000000e+00 0.000000e+00
1
Step 185000
Ar 4.352601e-03 0.000000e+00 0.000000e+00
1
Step 186000
Ar -2.440802e-02 0.000000e+00 0.000000e+00
1
Step 187000
Ar 5.498976e-04 0.000000e+00 0.000000e+00
1
Step 188000
Ar 3.381608e-02 0.000000e+00 0.000000e+00
1
Step 189000
Ar 4.736862e-03 0.000000e+00 0.000000e+00
1
Step 190000
Ar 1.713110e-02 0.000000e+00 0.000000e+00
1
Step 191000
Ar -6.450433e-03 0.000000e+00 0.000000e+00
1
Step 192000
Ar -3.516219e-02 0.000000e+00 0.000000e+00
1
Step 193000
Ar -4.543006e-02 0.000000e+00 0.000000e+00
1
Step 194000
Ar 1.836525e-02 0.000000e+00 0.000000e+00
1
Step 195000
Ar 5.150362e-02 0.000000e+00 0.000000e+00
1
Step 196000
Ar -3.556613e-02 0.000000e+00 0.000000e+00
1
Step 197000
Ar -1.073077e-02 0.000000e+00 0.000000e+00
1
Step 198000
Ar -1.110741e-03 0.000000e+00 0.000000e+00
1
Step 199000
Ar -6.429217e-02 0.000000e+00 0.000000e+00
1
Step 200000
Ar -6.948742e-02 0.000000e+00 0.000000e+00
1
Step 201000
Ar 3.057936e-02 0.000000e+00 0.000000e+00
1
Step 202000
Ar -1.054113e-02 0.000000e+00 0.000000e+00
1
Step 203000
Ar -3.528879e-02 0.000000e+00 0.000000e+00
1
Step 204000
Ar -9.670609e-03 0.000000e+00 0.000000e+00
1
Step 205000
Ar -1.163021e-02 0.000000e+00 0.000000e+00
1
Step 206000
Ar -3.224974e-02 0.000000e+00 0.000000e+00
1
Step 207000
Ar 2.935439e-02 0.000000e+00 0.000000e+00
1
Step 208000
Ar 5.026536e-02 0.000000e+00 0.000000e+00
1
Step 209000
Ar 3.912376e-02 0.000000e+00 0.000000e+00
1
Step 210000
Ar -3.860191e-02 0.000000e+00 0.000000e+00
1
Step 211000
Ar 1.814167e-02 0.000000e+00 0.000000e+00
1
Step 212000
Ar 3.247449e-02 0.000000e+00 0.000000e+00
1
Step 213000
Ar 4.825898e-02 0.000000e+00 0.000000e+00
1
Step 214000
Ar -1.886168e-02 0.000000e+00 0.000000e+00
1
Step 215000
Ar -1.677722e-02 0.000000e+00 0.000000e+00
1
Step 216000
Ar 2.519468e-02 0.000000e+00 0.000000e+00
1
Step 217000
Ar -4.744513e-03 0.000000e+00 0.000000e+00
1
Step 218000
Ar 2.303163e-03 0.000000e+00 0.000000e+00
1
Step 219000
Ar -1.921926e-02 0.000000e+00 0.000000e+00
1
Step 220000
Ar -3.253889e-02 0.000000e+00 0.000000e+00
1
Step 221000
Ar -8.919360e-03 0.000000e+00 0.000000e+00
1
Step 222000
Ar -2.183541e-02 0.000000e+00 0.000000e+00
1
Step 223000
Ar -4.275574e-04 0.000000e+00 0.000000e+00
1
Step 224000
Ar 2.538598e-02 0.000000e+00 0.000000e+00
1
Step 225000
Ar -1.970642e-02 0.000000e+00 0.000000e+00
1
Step 226000
Ar -2.712665e-02 0.000000e+00 0.000000e+00
1
Step 227000
Ar 5.102495e-02 0.000000e+00 0.000000e+00
1
Step 228000
Ar -1.271135e-03 0.000000e+00 0.000000e+00
1
Step 229000
Ar 2.916152e-02 0.000000e+00 0.000000e+00
1
Step 230000
Ar -7.621938e-03 0.000000e+00 0.000000e+00
1
Step 231000
Ar 5.993822e-02 0.000000e+00 0.000000e+00
1
Step 232000
Ar -1.072656e-02 0.000000e+00 0.000000e+00
1
Step 233000
Ar -5.054278e-02 0.000000e+00 0.000000e+00
1
Step 234000
Ar -2.270933e-02 0.000000e+00 0.000000e+00
1
Step 235000
Ar -1.759858e-02 0.000000e+00 0.000000e+00
1
Step 236000
Ar -8.326217e-03 0.000000e+00 0.000000e+00
1
Step 237000
Ar -2.005753e-02 0.000000e+00 0.000000e+00
1
Step 238000
Ar 5.733334e-03 0.000000e+00 0.000000e+00
1
Step 239000
Ar 1.383373e-02 0.000000e+00 0.000000e+00
1
Step 240000
Ar 1.399330e-03 0.000000e+00 0.000000e+00
1
Step 241000
Ar 3.596383e-02 0.000000e+00 0.000000e+00
1
Step 242000
Ar -2.226087e-04 0.000000e+00 0.000000e+00
1
Step 243000
Ar -5.073879e-02 0.000000e+00 0.000000e+00
1
Step 244000
Ar 9.516788e-04 0.000000e+00 0.000000e+00
1
Step 245000
Ar 2.439026e-03 0.000000e+00 0.000000e+00
1
Step 246000
Ar 4.477957e-02 0.000000e+00 0.000000e+00
1
Step 247000
Ar -3.166627e-02 0.000000e+00 0.000000e+00
1
Step 248000
Ar -1.876715e-02 0.000000e+00 0.000000e+00
1
Step 249000
Ar 1.448823e-02 0.000000e+00 0.000000e+00
1
Step 250000
Ar -6.070839e-02 0.000000e+00 0.000000e+00
1
Step 251000
Ar -1.570332e-02 0.000000e+00 0.000000e+00
1
Step 252000
Ar 6.192965e-03 0.000000e+00 0.000000e+00
1
Step 253000
Ar -1.216241e-02 0.000000e+00 0.000000e+00
1
Step 254000
Ar 1.647502e-02 0.000000e+00 0.000000e+00
1
Step 255000
Ar 1.508763e-02 0.000000e+00 0.000000e+00
1
Step 256000
Ar -2.948625e-02 0.000000e+00 0.000000e+00
1
Step 257000
Ar -4.608664e-02 0.000000e+00 0.000000e+00
1
Step 258000
Ar -1.743946e-02 0.000000e+00 0.000000e+00
1
Step 259000
Ar 4.797847e-02 0.000000e+00 0.000000e+00
1
Step 260000
Ar 4.724312e-04 0.000000e+00 0.000000e+00
1
Step 261000
Ar -2.134638e-03 0.000000e+00 0.000000e+00
1
Step 262000
Ar -2.840040e-02 0.000000e+00 0.000000e+00
1
Step 263000
Ar -1.510298e-02 0.000000e+00 0.000000e+00
1
Step 264000
Ar 3.633829e-02 0.000000e+00 0.000000e+00
1
Step 265000
Ar 3.262126e-02 0.000000e+00 0.000000e+00
1
Step 266000
Ar -6.499911e-03 0.000000e+00 0.000000e+00
1
Step 267000
Ar -1.222606e-02 0.000000e+00 0.000000e+00
1
Step 268000
Ar -4.347457e-03 0.000000e+00 0.000000e+00
1
Step 269000
Ar 1.477944e-02 0.000000e+00 0.000000e+00
1
Step 270000
Ar 1.740719e-02 0.000000e+00 0.000000e+00
1
Step 271000
Ar -3.088007e-02 0.000000e+00 0.000000e+00
1
Step 272000
Ar -5.075121e-02 0.000000e+00 0.000000e+00
1
Step 273000
Ar -1.466019e-02 0.000000e+00 0.000000e+00
1
Step 274000
Ar 1.922658e-02 0.000000e+00 0.000000e+00
1
Step 275000
Ar -3.872493e-02 0.000000e+00 0.000000e+00
1
Step 276000
Ar -6.818832e-02 0.000000e+00 0.000000e+00
1
Step 277000
Ar 2.477808e-02 0.000000e+00 0.000000e+00
1
Step 278000
Ar 3.689684e-02 0.000000e+00 0.000000e+00
1
Step 279000
Ar -9.601034e-03 0.000000e+00 0.000000e+00
1
Step 280000
Ar -3.467206e-02 0.000000e+00 0.000000e+00
1
Step 281000
Ar 8.909607e-02 0.000000e+00 0.000000e+00
1
Step 282000
Ar 3.212096e-03 0.000000e+00 0.000000e+00
1
Step 283000
Ar -4.388949e-03 0.000000e+00 0.000000e+00
1
Step 284000
Ar 2.026549e-02 0.000000e+00 0.000000e+00
1
Step 285000
Ar -3.738825e-02 0.000000e+00 0.000000e+00
1
Step 286000
Ar -4.647642e-02 0.000000e+00 0.000000e+00
1
Step 287000
Ar 7.891074e-03 0.000000e+00 0.000000e+00
1
Step 288000
Ar 5.965568e-03 0.000000e+00 0.000000e+00
1
Step 289000
Ar -6.241347e-02 0.000000e+00 0.000000e+00
1
Step 290000
Ar -5.885634e-02 0.000000e+00 0.000000e+00
1
Step 291000
Ar 5.349494e-02 0.000000e+00 0.000000e+00
1
Step 292000
Ar -1.738583e-02 0.000000e+00 0.000000e+00
1
Step 293000
Ar 4.337316e-02 0.000000e+00 0.000000e+00
1
Step 294000
Ar -2.777598e-03 0.000000e+00 0.000000e+00
1
Step 295000
Ar -3.150029e-02 0.000000e+00 0.000000e+00
1
Step 296000
Ar -1.697410e-02 0.000000e+00 0.000000e+00
1
Step 297000
Ar 3.936805e-03 0.000000e+00 0.000000e+00
1
Step 298000
Ar -3.087872e-04 0.000000e+00 0.000000e+00
1
Step 299000
Ar -9.608459e-03 0.000000e+00 0.000000e+00
1
Step 300000
Ar -2.601896e-02 0.000000e+00 0.000000e+00
1
Step 301000
Ar -6.589209e-03 0.000000e+00 0.000000e+00
1
Step 302000
Ar 4.089537e-02 0.000000e+00 0.000000e+00
1
Step 303000
Ar 2.377133e-03 0.000000e+00 0.000000e+00
1
Step 304000
Ar 2.814858e-02 0.000000e+00 0.000000e+00
1
Step 305000
Ar -1.669618e-02 0.000000e+00 0.000000e+00
1
Step 306000
Ar -3.773689e-03 0.000000e+00 0.000000e+00
1
Step 307000
Ar -4.090792e-02 0.000000e+00 0.000000e+00
1
Step 308000
Ar 1.601594e-02 0.000000e+00 0.000000e+00
1
Step 309000
Ar 4.754880e-02 0.000000e+00 0.000000e+00
1
Step 310000
Ar -2.062363e-02 0.000000e+00 0.000000e+00
1
Step 311000
Ar -3.943439e-02 0.000000e+00 0.000000e+00
1
Step 312000
Ar -6.787756e-03 0.000000e+00 0.000000e+00
1
Step 313000
Ar 5.463019e-03 0.000000e+00 0.000000e+00
1
Step 314000
Ar -3.716680e-02 0.000000e+00 0.000000e+00
1
Step 315000
Ar -2.883384e-02 0.000000e+00 0.000000e+00
1
Step 316000
Ar -1.121627e-02 0.000000e+00 0.000000e+00
1
Step 317000
Ar 3.064234e-02 0.000000e+00 0.000000e+00
1
Step 318000
Ar -3.636446e-02 0.000000e+00 0.000000e+00
1
Step 319000
Ar -3.194634e-02 0.000000e+00 0.000000e+00
1
Step 320000
Ar -8.470608e-04 0.000000e+00 0.000000e+00
1
Step 321000
Ar 2.932534e-02 0.000000e+00 0.000000e+00
1
Step 322000
Ar -3.242415e-02 0.000000e+00 0.000000e+00
1
Step 323000
Ar 1.343909e-02 0.000000e+00 0.000000e+00
1
Step 324000
Ar -5.575379e-02 0.000000e+00 0.000000e+00
1
Step 325000
Ar -1.386221e-02 0.000000e+00 0.000000e+00
1
Step 326000
Ar -5.004908e-02 0.000000e+00 0.000000e+00
1
Step 327000
Ar 7.155569e-03 0.000000e+00 0.000000e+00
1
Step 328000
Ar -2.547475e-02 0.000000e+00 0.000000e+00
1
Step 329000
Ar 2.923603e-02 0.000000e+00 0.000000e+00
1
Step 330000
Ar 4.945477e-04 0.000000e+00 0.000000e+00
1
Step 331000
Ar -5.727360e-03 0.000000e+00 0.000000e+00
1
Step 332000
Ar 2.127465e-02 0.000000e+00 0.000000e+00
1
Step 333000
Ar -4.541007e-02 0.000000e+00 0.000000e+00
1
Step 334000
Ar -3.209168e-02 0.000000e+00 0.000000e+00
1
Step 335000
Ar -2.357363e-02 0.000000e+00 0.000000e+00
1
Step 336000
Ar 2.930682e-02 0.000000e+00 0.000000e+00
1
Step 337000
Ar 2.339967e-02 0.000000e+00 0.000000e+00
1
Step 338000
Ar 1.629807e-02 0.000000e+00 0.000000e+00
1
Step 339000
Ar -4.287128e-02 0.000000e+00 0.000000e+00
1
Step 340000
Ar 1.285774e-02 0.000000e+00 0.000000e+00
1
Step 341000
Ar -1.129642e-02 0.000000e+00 0.000000e+00
1
Step 342000
Ar 7.518252e-04 0.000000e+00 0.000000e+00
1
Step 343000
Ar -3.336756e-02 0.000000e+00 0.000000e+00
1
Step 344000
Ar -4.027664e-02 0.000000e+00 0.000000e+00
1
Step 345000
Ar -3.801181e-03 0.000000e+00 0.000000e+00
1
Step 346000
Ar -3.415866e-02 0.000000e+00 0.000000e+00
1
Step 347000
Ar -6.644995e-03 0.000000e+00 0.000000e+00
1
Step 348000
Ar 5.466611e-02 0.000000e+00 0.000000e+00
1
Step 349000
Ar 2.403460e-02 0.000000e+00 0.000000e+00
1
Step 350000
Ar -2.831152e-02 0.000000e+00 0.000000e+00
1
Step 351000
Ar 3.813266e-02 0.000000e+00 0.000000e+00
1
Step 352000
Ar 2.086568e-02 0.000000e+00 0.000000e+00
1
Step 353000
Ar 1.934217e-02 0.000000e+00 0.000000e+00
1
Step 354000
Ar 2.269425e-02 0.000000e+00 0.000000e+00
1
Step 355000
Ar 7.222880e-03 0.000000e+00 0.000000e+00
1
Step 356000
Ar -2.055941e-02 0.000000e+00 0.000000e+00
1
Step 357000
Ar -6.710304e-03 0.000000e+00 0.000000e+00
1
Step 358000
Ar 8.781784e-03 0.000000e+00 0.000000e+00
1
Step 359000
Ar -2.790252e-02 0.000000e+00 0.000000e+00
1
Step 360000
Ar -4.337112e-03 0.000000e+00 0.000000e+00
1
Step 361000
Ar -6.173454e-03 0.000000e+00 0.000000e+00
1
Step 362000
Ar -4.772407e-02 0.000000e+00 0.000000e+00
1
Step 363000
Ar -4.374343e-02 0.000000e+00 0.000000e+00
1
Step 364000
Ar 7.402802e-02 0.000000e+00 0.000000e+00
1
Step 365000
Ar -1.714205e-03 0.000000e+00 0.000000e+00
1
Step 366000
Ar 4.794521e-02 0.000000e+00 0.000000e+00
1
Step 367000
Ar -4.219300e-02 0.000000e+00 0.000000e+00
1
Step 368000
Ar -5.484060e-03 0.000000e+00 0.000000e+00
1
Step 369000
Ar 2.771415e-02 0.000000e+00 0.000000e+00
1
Step 370000
Ar 1.183539e-02 0.000000e+00 0.000000e+00
1
Step 371000
Ar 5.660445e-02 0.000000e+00 0.000000e+00
1
Step 372000
Ar 4.541582e-02 0.000000e+00 0.000000e+00
1
Step 373000
Ar 1.303043e-02 0.000000e+00 0.000000e+00
1
Step 374000
Ar 1.241666e-02 0.000000e+00 0.000000e+00
1
Step 375000
Ar -4.334006e-02 0.000000e+00 0.000000e+00
1
Step 376000
Ar -8.344801e-02 0.000000e+00 0.000000e+00
1
Step 377000
Ar -5.936833e-02 0.000000e+00 0.000000e+00
1
Step 378000
Ar -7.375739e-02 0.000000e+00 0.000000e+00
1
Step 379000
Ar -7.700448e-03 0.000000e+00 0.000000e+00
1
Step 380000
Ar -5.875352e-03 0.000000e+00 0.000000e+00
1
Step 381000
Ar 3.462483e-02 0.000000e+00 0.000000e+00
1
Step 382000
Ar -2.334138e-02 0.000000e+00 0.000000e+00
1
Step 383000
Ar 1.454083e-02 0.000000e+00 0.000000e+00
1
Step 384000
Ar -2.777072e-02 0.000000e+00 0.000000e+00
1
Step 385000
Ar 1.621223e-02 0.000000e+00 0.000000e+00
1
Step 386000
Ar -4.962022e-02 0.000000e+00 0.000000e+00
1
Step 387000
Ar -1.279228e-02 0.000000e+00 0.000000e+00
1
Step 388000
Ar -5.785392e-03 0.000000e+00 0.000000e+00
1
Step 389000
Ar 2.941775e-02 0.000000e+00 0.000000e+00
1
Step 390000
Ar 1.364905e-02 0.000000e+00 0.000000e+00
1
Step 391000
Ar -5.668731e-02 0.000000e+00 0.000000e+00
1
Step 392000
Ar 3.538392e-02 0.000000e+00 0.000000e+00
1
Step 393000
Ar -2.023872e-02 0.000000e+00 0.000000e+00
1
Step 394000
Ar 2.065396e-02 0.000000e+00 0.000000e+00
1
Step 395000
Ar 1.074012e-02 0.000000e+00 0.000000e+00
1
Step 396000
Ar 4.945767e-02 0.000000e+00 0.000000e+00
1
Step 397000
Ar -1.360346e-02 0.000000e+00 0.000000e+00
1
Step 398000
Ar 5.470510e-02 0.000000e+00 0.000000e+00
1
Step 399000
Ar 1.378778e-02 0.000000e+00 0.000000e+00
1
Step 400000
Ar 1.449767e-02 0.000000e+00 0.000000e+00
1
Step 401000
Ar 2.113933e-02 0.000000e+00 0.000000e+00
1
Step 402000
Ar -1.562712e-02 0.000000e+00 0.000000e+00
1
Step 403000
Ar 2.302408e-02 0.000000e+00 0.000000e+00
1
Step 404000
Ar -1.578660e-02 0.000000e+00 0.000000e+00
1
Step 405000
Ar 6.622003e-02 0.000000e+00 0.000000e+00
1
Step 406000
Ar -4.625723e-02 0.000000e+00 0.000000e+00
1
Step 407000
Ar 4.885380e-02 0.000000e+00 0.000000e+00
1
Step 408000
Ar 2.891653e-02 0.000000e+00 0.000000e+00
1
Step 409000
Ar -1.321226e-02 0.000000e+00 0.000000e+00
1
Step 410000
Ar -4.681385e-02 0.000000e+00 0.000000e+00
1
Step 411000
Ar 1.055388e-02 0.000000e+00 0.000000e+00
1
Step 412000
Ar -5.449336e-02 0.000000e+00 0.000000e+00
1
Step 413000
Ar 3.502736e-03 0.000000e+00 0.000000e+00
1
Step 414000
Ar 3.534133e-02 0.000000e+00 0.000000e+00
1
Step 415000
Ar 9.288412e-03 0.000000e+00 0.000000e+00
1
Step 416000
Ar 7.137422e-02 0.000000e+00 0.000000e+00
1
Step 417000
Ar -1.062764e-02 0.000000e+00 0.000000e+00
1
Step 418000
Ar -5.374558e-03 0.000000e+00 0.000000e+00
1
Step 419000
Ar 3.730877e-02 0.000000e+00 0.000000e+00
1
Step 420000
Ar -2.688873e-02 0.000000e+00 0.000000e+00
1
Step 421000
Ar 1.884001e-02 0.000000e+00 0.000000e+00
1
Step 422000
Ar -8.132525e-02 0.000000e+00 0.000000e+00
1
Step 423000
Ar -2.390821e-02 0.000000e+00 0.000000e+00
1
Step 424000
Ar -3.640942e-02 0.000000e+00 0.000000e+00
1
Step 425000
Ar -2.960961e-02 0.000000e+00 0.000000e+00
1
Step 426000
Ar -3.620401e-02 0.000000e+00 0.000000e+00
1
Step 427000
Ar 3.750443e-02 0.000000e+00 0.000000e+00
1
Step 428000
Ar 1.883218e-02 0.000000e+00 0.000000e+00
1
Step 429000
Ar 1.000559e-02 0.000000e+00 0.000000e+00
1
Step 430000
Ar 5.640903e-02 0.000000e+00 0.000000e+00
1
Step 431000
Ar -2.849641e-02 0.000000e+00 0.000000e+00
1
Step 432000
Ar 1.930459e-04 0.000000e+00 0.000000e+00
1
Step 433000
Ar 5.810687e-02 0.000000e+00 0.000000e+00
1
Step 434000
Ar -1.359265e-02 0.000000e+00 0.000000e+00
1
Step 435000
Ar -4.482291e-02 0.000000e+00 0.000000e+00
1
Step 436000
Ar -8.614354e-03 0.000000e+00 0.000000e+00
1
Step 437000
Ar 4.705130e-02 0.000000e+00 0.000000e+00
1
Step 438000
Ar -7.938513e-03 0.000000e+00 0.000000e+00
1
Step 439000
Ar 1.114350e-02 0.000000e+00 0.000000e+00
1
Step 440000
Ar -7.982965e-03 0.000000e+00 0.000000e+00
1
Step 441000
Ar 3.493448e-02 0.000000e+00 0.000000e+00
1
Step 442000
Ar 5.109217e-03 0.000000e+00 0.000000e+00
1
Step 443000
Ar -3.510969e-02 0.000000e+00 0.000000e+00
1
Step 444000
Ar -4.914191e-03 0.000000e+00 0.000000e+00
1
Step 445000
Ar 1.136671e-02 0.000000e+00 0.000000e+00
1
Step 446000
Ar 5.562687e-03 0.000000e+00 0.000000e+00
1
Step 447000
Ar -2.361610e-02 0.000000e+00 0.000000e+00
1
Step 448000
Ar -3.131714e-02 0.000000e+00 0.000000e+00
1
Step 449000
Ar -7.369131e-02 0.000000e+00 0.000000e+00
1
Step 450000
Ar 1.824750e-02 0.000000e+00 0.000000e+00
1
Step 451000
Ar -7.444345e-02 0.000000e+00 0.000000e+00
1
Step 452000
Ar 6.912812e-02 0.000000e+00 0.000000e+00
1
Step 453000
Ar -2.349655e-02 0.000000e+00 0.000000e+00
1
Step 454000
Ar -5.339649e-02 0.000000e+00 0.000000e+00
1
Step 455000
Ar -7.792696e-03 0.000000e+00 0.000000e+00
1
Step 456000
Ar 4.898657e-02 0.000000e+00 0.000000e+00
1
Step 457000
Ar -3.127756e-02 0.000000e+00 0.000000e+00
1
Step 458000
Ar 1.474461e-02 0.000000e+00 0.000000e+00
1
Step 459000
Ar -2.532274e-02 0.000000e+00 0.000000e+00
1
Step 460000
Ar 1.967670e-03 0.000000e+00 0.000000e+00
1
Step 461000
Ar 1.223620e-02 0.000000e+00 0.000000e+00
1
Step 462000
Ar -1.527043e-02 0.000000e+00 0.000000e+00
1
Step 463000
Ar -9.712293e-02 0.000000e+00 0.000000e+00
1
Step 464000
Ar -1.000177e-02 0.000000e+00 0.000000e+00
1
Step 465000
Ar 5.679065e-03 0.000000e+00 0.000000e+00
1
Step 466000
Ar -7.884108e-02 0.000000e+00 0.000000e+00
1
Step 467000
Ar -7.104400e-03 0.000000e+00 0.000000e+00
1
Step 468000
Ar -4.155782e-02 0.000000e+00 0.000000e+00
1
Step 469000
Ar 2.472256e-02 0.000000e+00 0.000000e+00
1
Step 470000
Ar -3.339273e-02 0.000000e+00 0.000000e+00
1
Step 471000
Ar -6.408851e-03 0.000000e+00 0.000000e+00
1
Step 472000
Ar 4.099283e-02 0.000000e+00 0.000000e+00
1
Step 473000
Ar -7.555270e-03 0.000000e+00 0.000000e+00
1
Step 474000
Ar -3.848053e-02 0.000000e+00 0.000000e+00
1
Step 475000
Ar 8.134591e-03 0.000000e+00 0.000000e+00
1
Step 476000
Ar -5.014914e-03 0.000000e+00 0.000000e+00
1
Step 477000
Ar -7.121297e-03 0.000000e+00 0.000000e+00
1
Step 478000
Ar -5.308351e-02 0.000000e+00 0.000000e+00
1
Step 479000
Ar 1.679449e-02 0.000000e+00 0.000000e+00
1
Step 480000
Ar 2.740106e-02 0.000000e+00 0.000000e+00
1
Step 481000
Ar -2.334647e-02 0.000000e+00 0.000000e+00
1
Step 482000
Ar 1.446356e-02 0.000000e+00 0.000000e+00
1
Step 483000
Ar -4.178050e-02 0.000000e+00 0.000000e+00
1
Step 484000
Ar 5.396798e-02 0.000000e+00 0.000000e+00
1
Step 485000
Ar 2.693633e-02 0.000000e+00 0.000000e+00
1
Step 486000
Ar 1.164095e-02 0.000000e+00 0.000000e+00
1
Step 487000
Ar 5.046918e-02 0.000000e+00 0.000000e+00
1
Step 488000
Ar 1.820459e-02 0.000000e+00 0.000000e+00
1
Step 489000
Ar 1.968052e-02 0.000000e+00 0.000000e+00
1
Step 490000
Ar -2.784122e-02 0.000000e+00 0.000000e+00
1
Step 491000
Ar 3.028461e-02 0.000000e+00 0.000000e+00
1
Step 492000
Ar 4.678252e-02 0.000000e+00 0.000000e+00
1
Step 493000
Ar 5.258763e-02 0.000000e+00 0.000000e+00
1
Step 494000
Ar -1.606900e-02 0.000000e+00 0.000000e+00
1
Step 495000
Ar 3.927127e-02 0.000000e+00 0.000000e+00
1
Step 496000
Ar -1.313010e-02 0.000000e+00 0.000000e+00
1
Step 497000
Ar -3.852582e-02 0.000000e+00 0.000000e+00
1
Step 498000
Ar -1.428451e-02 0.000000e+00 0.000000e+00
1
Step 499000
Ar -2.684946e-02 0.000000e+00 0.000000e+00
