1
Step 120000
Ar 9.844265e-01 0.000000e+00 0.000000e+00
1
Step 121000
Ar 9.578841e-01 0.000000e+00 0.000000e+00
1
Step 122000
Ar 1.163801e+00 0.000000e+00 0.000000e+00
1
Step 123000
Ar 1.177351e+00 0.000000e+00 0.000000e+00
1
Step 124000
Ar 1.114272e+00 0.000000e+00 0.000000e+00
1
Step 125000
Ar 8.981882e-01 0.000000e+00 0.000000e+00
1
Step 126000
Ar 1.047649e+00 0.000000e+00 0.000000e+00
1
Step 127000
Ar 9.394432e-01 0.000000e+00 0.000000e+00
1
Step 128000
Ar 1.014734e+00 0.000000e+00 0.000000e+00
1
Step 129000
Ar 1.045864e+00 0.000000e+00 0.000000e+00
1
Step 130000
Ar 1.035243e+00 0.000000e+00 0.000000e+00
1
Step 131000
Ar 1.119329e+00 0.000000e+00 0.000000e+00
1
Step 132000
Ar 1.070155e+00 0.000000e+00 0.000000e+00
1
Step 133000
Ar 1.061221e+00 0.000000e+00 0.000000e+00
1
Step 134000
Ar 1.083354e+00 0.000000e+00 0.000000e+00
1
Step 135000
Ar 1.066251e+00 0.000000e+00 0.000000e+00
1
Step 136000
Ar 1.071231e+00 0.000000e+00 0.000000e+00
1
Step 137000
Ar 1.066019e+00 0.000000e+00 0.000000e+00
1
Step 138000
Ar 1.091197e+00 0.000000e+00 0.000000e+00
1
Step 139000
Ar 1.049292e+00 0.000000e+00 0.000000e+00
1
Step 140000
Ar 1.093967e+00 0.000000e+00 0.000000e+00
1
Step 141000
Ar 1.053870e+00 0.000000e+00 0.000000e+00
1
Step 142000
Ar 1.066777e+00 0.000000e+00 0.000000e+00
1
Step 143000
Ar 1.087084e+00 0.000000e+00 0.000000e+00
1
Step 144000
Ar 1.051759e+00 0.000000e+00 0.000000e+00
1
Step 145000
Ar 1.059778e+00 0.000000e+00 0.000000e+00
1
Step 146000
Ar 1.057281e+00 0.000000e+00 0.000000e+00
1
Step 147000
Ar 1.087304e+00 0.000000e+00 0.000000e+00
1
Step 148000
Ar 1.105929e+00 0.000000e+00 0.000000e+00
1
Step 149000
Ar 1.092040e+00 0.000000e+00 0.000000e+00
1
Step 150000
Ar 1.091815e+00 0.000000e+00 0.000000e+00
1
Step 151000
Ar 9.441573e-01 0.000000e+00 0.000000e+00
1
Step 152000
Ar 9.845754e-01 0.000000e+00 0.000000e+00
1
Step 153000
Ar 9.920740e-01 0.000000e+00 0.000000e+00
1
Step 154000
Ar 9.187166e-01 0.000000e+00 0.000000e+00
1
Step 155000
Ar 9.315043e-01 0.000000e+00 0.000000e+00
1
Step 156000
Ar 9.695977e-01 0.000000e+00 0.000000e+00
1
Step 157000
Ar 9.441440e-01 0.000000e+00 0.000000e+00
1
Step 158000
Ar 9.715983e-01 0.000000e+00 0.000000e+00
1
Step 159000
Ar 9.835694e-01 0.000000e+00 0.000000e+00
1
Step 160000
Ar 9.921275e-01 0.000000e+00 0.000000e+00
1
Step 161000
Ar 8.431420e-01 0.000000e+00 0.000000e+00
1
Step 162000
Ar 8.098908e-01 0.000000e+00 0.000000e+00
1
Step 163000
Ar 8.409534e-01 0.000000e+00 0.000000e+00
1
Step 164000
Ar 7.287977e-01 0.000000e+00 0.000000e+00
1
Step 165000
Ar 8.005294e-01 0.000000e+00 0.000000e+00
1
Step 166000
Ar 7.550817e-01 0.000000e+00 0.000000e+00
1
Step 167000
Ar 7.893549e-01 0.000000e+00 0.000000e+00
1
Step 168000
Ar 7.760652e-01 0.000000e+00 0.000000e+00
1
Step 169000
Ar 8.683143e-01 0.000000e+00 0.000000e+00
1
Step 170000
Ar 8.538956e-01 0.000000e+00 0.000000e+00
1
Step 171000
Ar 6.430705e-01 0.000000e+00 0.000000e+00
1
Step 172000
Ar 6.977131e-01 0.000000e+00 0.000000e+00
1
Step 173000
Ar 6.023872e-01 0.000000e+00 0.000000e+00
1
Step 174000
Ar 7.293254e-01 0.000000e+00 0.000000e+00
1
Step 175000
Ar 5.948349e-01 0.000000e+00 0.000000e+00
1
Step 176000
Ar 6.789948e-01 0.000000e+00 0.000000e+00
1
Step 177000
Ar 7.216067e-01 0.000000e+00 0.000000e+00
1
Step 178000
Ar 7.955667e-01 0.000000e+00 0.000000e+00
1
Step 179000
Ar 6.292765e-01 0.000000e+00 0.000000e+00
1
Step 180000
Ar 7.441569e-01 0.000000e+00 0.000000e+00
1
Step 181000
Ar 7.480200e-01 0.000000e+00 0.000000e+00
1
Step 182000
Ar 7.780096e-01 0.000000e+00 0.000000e+00
1
Step 183000
Ar 7.531859e-01 0.000000e+00 0.000000e+00
1
Step 184000
Ar 7.549756e-01 0.000000e+00 0.000000e+00
1
Step 185000
Ar 6.549487e-01 0.000000e+00 0.000000e+00
1
Step 186000
Ar 6.723487e-01 0.000000e+00 0.000000e+00
1
Step 187000
Ar 7.169886e-01 0.000000e+00 0.000000e+00
1
Step 188000
Ar 6.943847e-01 0.000000e+00 0.000000e+00
1
Step 189000
Ar 6.755279e-01 0.000000e+00 0.000000e+00
1
Step 190000
Ar 6.631726e-01 0.000000e+00 0.000000e+00
1
Step 191000
Ar 7.212247e-01 0.000000e+00 0.000000e+00
1
Step 192000
Ar 6.990891e-01 0.000000e+00 0.000000e+00
1
Step 193000
Ar 7.152233e-01 0.000000e+00 0.000000e+00
1
Step 194000
Ar 5.356157e-01 0.000000e+00 0.000000e+00
1
Step 195000
Ar 6.426137e-01 0.000000e+00 0.000000e+00
1
Step 196000
Ar 6.547425e-01 0.000000e+00 0.000000e+00
1
Step 197000
Ar 1.927250e-01 0.000000e+00 0.000000e+00
1
Step 198000
Ar 5.436611e-01 0.000000e+00 0.000000e+00
1
Step 199000
Ar 5.722793e-01 0.000000e+00 0.000000e+00
1
Step 200000
Ar 5.355826e-01 0.000000e+00 0.000000e+00
1
Step 201000
Ar 3.853565e-01 0.000000e+00 0.000000e+00
1
Step 202000
Ar 5.571681e-01 0.000000e+00 0.000000e+00
1
Step 203000
Ar 5.119880e-01 0.000000e+00 0.000000e+00
1
Step 204000
Ar 5.494143e-01 0.000000e+00 0.000000e+00
1
Step 205000
Ar 4.422432e-01 0.000000e+00 0.000000e+00
1
Step 206000
Ar 5.482603e-01 0.000000e+00 0.000000e+00
1
Step 207000
Ar 4.970539e-01 0.000000e+00 0.000000e+00
1
Step 208000
Ar 5.069173e-01 0.000000e+00 0.000000e+00
1
Step 209000
Ar 4.221483e-01 0.000000e+00 0.000000e+00
1
Step 210000
Ar 5.028363e-01 0.000000e+00 0.000000e+00
1
Step 211000
Ar 5.255557e-01 0.000000e+00 0.000000e+00
1
Step 212000
Ar 4.261622e-01 0.000000e+00 0.000000e+00
1
Step 213000
Ar 5.487063e-01 0.000000e+00 0.000000e+00
1
Step 214000
Ar 4.401328e-01 0.000000e+00 0.000000e+00
1
Step 215000
Ar 5.439426e-01 0.000000e+00 0.000000e+00
1
Step 216000
Ar 5.530903e-01 0.000000e+00 0.000000e+00
1
Step 217000
Ar 5.349955e-01 0.000000e+00 0.000000e+00
1
Step 218000
Ar 5.426148e-01 0.000000e+00 0.000000e+00
1
Step 219000
Ar 5.408571e-01 0.000000e+00 0.000000e+00
1
Step 220000
Ar 6.006672e-01 0.000000e+00 0.000000e+00
1
Step 221000
Ar 6.008102e-01 0.000000e+00 0.000000e+00
1
Step 222000
Ar 6.075287e-01 0.000000e+00 0.000000e+00
1
Step 223000
Ar 6.097721e-01 0.000000e+00 0.000000e+00
1
Step 224000
Ar 5.982183e-01 0.000000e+00 0.000000e+00
1
Step 225000
Ar 5.953891e-01 0.000000e+00 0.000000e+00
1
Step 226000
Ar 5.974304e-01 0.000000e+00 0.000000e+00
1
Step 227000
Ar 5.943411e-01 0.000000e+00 0.000000e+00
1
Step 228000
Ar 5.983490e-01 0.000000e+00 0.000000e+00
1
Step 229000
Ar 5.509904e-01 0.000000e+00 0.000000e+00
1
Step 230000
Ar 5.444437e-01 0.000000e+00 0.000000e+00
1
Step 231000
Ar 4.516228e-01 0.000000e+00 0.000000e+00
1
Step 232000
Ar -8.711317e-01 0.000000e+00 0.000000e+00
1
Step 233000
Ar -1.041880e+00 0.000000e+00 0.000000e+00
1
Step 234000
Ar -1.100287e+00 0.000000e+00 0.000000e+00
1
Step 235000
Ar -1.006853e+00 0.000000e+00 0.000000e+00
1
Step 236000
Ar -9.884548e-01 0.000000e+00 0.000000e+00
1
Step 237000
Ar -7.010013e-01 0.000000e+00 0.000000e+00
1
Step 238000
Ar -1.120685e+00 0.000000e+00 0.000000e+00
1
Step 239000
Ar -1.145577e+00 0.000000e+00 0.000000e+00
1
Step 240000
Ar -8.806745e-01 0.000000e+00 0.000000e+00
1
Step 241000
Ar -9.755298e-01 0.000000e+00 0.000000e+00
1
Step 242000
Ar -1.048683e+00 0.000000e+00 0.000000e+00
1
Step 243000
Ar -9.640014e-01 0.000000e+00 0.000000e+00
1
Step 244000
Ar -1.036315e+00 0.000000e+00 0.000000e+00
1
Step 245000
Ar -1.075354e+00 0.000000e+00 0.000000e+00
1
Step 246000
Ar -1.079698e+00 0.000000e+00 0.000000e+00
1
Step 247000
Ar -1.065163e+00 0.000000e+00 0.000000e+00
1
Step 248000
Ar -1.059261e+00 0.000000e+00 0.000000e+00
1
Step 249000
Ar -1.058912e+00 0.000000e+00 0.000000e+00
1
Step 250000
Ar -1.180058e+00 0.000000e+00 0.000000e+00
1
Step 251000
Ar -1.108981e+00 0.000000e+00 0.000000e+00
1
Step 252000
Ar -1.153002e+00 0.000000e+00 0.000000e+00
1
Step 253000
Ar -1.263226e+00 0.000000e+00 0.000000e+00
1
Step 254000
Ar -1.138044e+00 0.000000e+00 0.000000e+00
1
Step 255000
Ar -1.146028e+00 0.000000e+00 0.000000e+00
1
Step 256000
Ar -1.214215e+00 0.000000e+00 0.000000e+00
1
Step 257000
Ar -1.148786e+00 0.000000e+00 0.000000e+00
1
Step 258000
Ar -1.161788e+00 0.000000e+00 0.000000e+00
1
Step 259000
Ar -1.181449e+00 0.000000e+00 0.000000e+00
1
Step 260000
Ar -1.171967e+00 0.000000e+00 0.000000e+00
1
Step 261000
Ar -1.150465e+00 0.000000e+00 0.000000e+00
1
Step 262000
Ar -1.152882e+00 0.000000e+00 0.000000e+00
1
Step 263000
Ar -1.175729e+00 0.000000e+00 0.000000e+00
1
Step 264000
Ar -1.238609e+00 0.000000e+00 0.000000e+00
1
Step 265000
Ar -1.156751e+00 0.000000e+00 0.000000e+00
1
Step 266000
Ar -8.274546e-01 0.000000e+00 0.000000e+00
1
Step 267000
Ar -8.892943e-01 0.000000e+00 0.000000e+00
1
Step 268000
Ar -7.820001e-01 0.000000e+00 0.000000e+00
1
Step 269000
Ar -8.276589e-01 0.000000e+00 0.000000e+00
1
Step 270000
Ar -7.146050e-01 0.000000e+00 0.000000e+00
1
Step 271000
Ar -6.298520e-01 0.000000e+00 0.000000e+00
1
Step 272000
Ar -8.603540e-01 0.000000e+00 0.000000e+00
1
Step 273000
Ar -7.770674e-01 0.000000e+00 0.000000e+00
1
Step 274000
Ar -8.101815e-01 0.000000e+00 0.000000e+00
1
Step 275000
Ar -5.864173e-01 0.000000e+00 0.000000e+00
1
Step 276000
Ar -6.464238e-01 0.000000e+00 0.000000e+00
1
Step 277000
Ar -7.711801e-01 0.000000e+00 0.000000e+00
1
Step 278000
Ar -8.538334e-01 0.000000e+00 0.000000e+00
1
Step 279000
Ar -8.239972e-01 0.000000e+00 0.000000e+00
1
Step 280000
Ar -5.584584e-01 0.000000e+00 0.000000e+00
1
Step 281000
Ar -7.952094e-01 0.000000e+00 0.000000e+00
1
Step 282000
Ar -8.103910e-01 0.000000e+00 0.000000e+00
1
Step 283000
Ar -8.562456e-01 0.000000e+00 0.000000e+00
1
Step 284000
Ar -7.892554e-01 0.000000e+00 0.000000e+00
1
Step 285000
Ar -8.592840e-01 0.000000e+00 0.000000e+00
1
Step 286000
Ar -8.346203e-01 0.000000e+00 0.000000e+00
1
Step 287000
Ar -9.498885e-01 0.000000e+00 0.000000e+00
1
Step 288000
Ar -9.858513e-01 0.000000e+00 0.000000e+00
1
Step 289000
Ar -9.746315e-01 0.000000e+00 0.000000e+00
1
Step 290000
Ar -9.304837e-01 0.000000e+00 0.000000e+00
1
Step 291000
Ar -9.332445e-01 0.000000e+00 0.000000e+00
1
Step 292000
Ar -9.591862e-01 0.000000e+00 0.000000e+00
1
Step 293000
Ar -8.853213e-01 0.000000e+00 0.000000e+00
1
Step 294000
Ar -9.588882e-01 0.000000e+00 0.000000e+00
1
Step 295000
Ar -1.003397e+00 0.000000e+00 0.000000e+00
1
Step 296000
Ar -1.019259e+00 0.000000e+00 0.000000e+00
1
Step 297000
Ar -1.022157e+00 0.000000e+00 0.000000e+00
1
Step 298000
Ar -1.024355e+00 0.000000e+00 0.000000e+00
1
Step 299000
Ar -8.341803e-01 0.000000e+00 0.000000e+00
1
Step 300000
Ar -7.914023e-01 0.000000e+00 0.000000e+00
1
Step 301000
Ar -7.597056e-01 0.000000e+00 0.000000e+00
1
Step 302000
Ar -7.831176e-01 0.000000e+00 0.000000e+00
1
Step 303000
Ar -7.832066e-01 0.000000e+00 0.000000e+00
1
Step 304000
Ar -5.620307e-01 0.000000e+00 0.000000e+00
1
Step 305000
Ar -6.306441e-01 0.000000e+00 0.000000e+00
1
Step 306000
Ar -4.428878e-01 0.000000e+00 0.000000e+00
1
Step 307000
Ar -5.827998e-01 0.000000e+00 0.000000e+00
1
Step 308000
Ar -6.898126e-01 0.000000e+00 0.000000e+00
1
Step 309000
Ar -3.536040e-01 0.000000e+00 0.000000e+00
1
Step 310000
Ar -5.416155e-01 0.000000e+00 0.000000e+00
1
Step 311000
Ar -6.606810e-01 0.000000e+00 0.000000e+00
1
Step 312000
Ar -6.477619e-01 0.000000e+00 0.000000e+00
1
Step 313000
Ar -6.722739e-01 0.000000e+00 0.000000e+00
1
Step 314000
Ar -6.428199e-01 0.000000e+00 0.000000e+00
1
Step 315000
Ar -6.459568e-01 0.000000e+00 0.000000e+00
1
Step 316000
Ar -5.895833e-01 0.000000e+00 0.000000e+00
1
Step 317000
Ar -5.249644e-01 0.000000e+00 0.000000e+00
1
Step 318000
Ar -6.804937e-01 0.000000e+00 0.000000e+00
1
Step 319000
Ar -5.455613e-01 0.000000e+00 0.000000e+00
1
Step 320000
Ar -6.110441e-01 0.000000e+00 0.000000e+00
1
Step 321000
Ar -5.917840e-01 0.000000e+00 0.000000e+00
1
Step 322000
Ar -4.354177e-02 0.000000e+00 0.000000e+00
1
Step 323000
Ar 4.139879e-01 0.000000e+00 0.000000e+00
1
Step 324000
Ar 3.941948e-01 0.000000e+00 0.000000e+00
1
Step 325000
Ar 4.859455e-01 0.000000e+00 0.000000e+00
1
Step 326000
Ar 5.062970e-01 0.000000e+00 0.000000e+00
1
Step 327000
Ar 5.131541e-01 0.000000e+00 0.000000e+00
1
Step 328000
Ar 3.908421e-01 0.000000e+00 0.000000e+00
1
Step 329000
Ar -5.933007e-01 0.000000e+00 0.000000e+00
1
Step 330000
Ar -5.176198e-01 0.000000e+00 0.000000e+00
1
Step 331000
Ar -4.558077e-01 0.000000e+00 0.000000e+00
1
Step 332000
Ar -5.577301e-01 0.000000e+00 0.000000e+00
1
Step 333000
Ar 1.339568e-01 0.000000e+00 0.000000e+00
1
Step 334000
Ar 4.646451e-01 0.000000e+00 0.000000e+00
1
Step 335000
Ar 4.985426e-01 0.000000e+00 0.000000e+00
1
Step 336000
Ar 4.598058e-01 0.000000e+00 0.000000e+00
