1
Step 120000
Ar 9.614607e-01 0.000000e+00 0.000000e+00
1
Step 121000
Ar 9.781566e-01 0.000000e+00 0.000000e+00
1
Step 122000
Ar 1.089724e+00 0.000000e+00 0.000000e+00
1
Step 123000
Ar 7.545925e-01 0.000000e+00 0.000000e+00
1
Step 124000
Ar 1.103469e+00 0.000000e+00 0.000000e+00
1
Step 125000
Ar 1.029031e+00 0.000000e+00 0.000000e+00
1
Step 126000
Ar 9.295308e-01 0.000000e+00 0.000000e+00
1
Step 127000
Ar 8.575016e-01 0.000000e+00 0.000000e+00
1
Step 128000
Ar 8.159146e-01 0.000000e+00 0.000000e+00
1
Step 129000
Ar 9.314098e-01 0.000000e+00 0.000000e+00
1
Step 130000
Ar 8.509980e-01 0.000000e+00 0.000000e+00
1
Step 131000
Ar 9.723434e-01 0.000000e+00 0.000000e+00
1
Step 132000
Ar 7.587311e-01 0.000000e+00 0.000000e+00
1
Step 133000
Ar 8.899673e-01 0.000000e+00 0.000000e+00
1
Step 134000
Ar 8.496454e-01 0.000000e+00 0.000000e+00
1
Step 135000
Ar 9.643433e-01 0.000000e+00 0.000000e+00
1
Step 136000
Ar 9.974459e-01 0.000000e+00 0.000000e+00
1
Step 137000
Ar 9.141802e-01 0.000000e+00 0.000000e+00
1
Step 138000
Ar 8.492247e-01 0.000000e+00 0.000000e+00
1
Step 139000
Ar 9.455421e-01 0.000000e+00 0.000000e+00
1
Step 140000
Ar 8.408241e-01 0.000000e+00 0.000000e+00
1
Step 141000
Ar 9.768202e-01 0.000000e+00 0.000000e+00
1
Step 142000
Ar 8.578621e-01 0.000000e+00 0.000000e+00
1
Step 143000
Ar 9.497767e-01 0.000000e+00 0.000000e+00
1
Step 144000
Ar 9.562136e-01 0.000000e+00 0.000000e+00
1
Step 145000
Ar 9.415856e-01 0.000000e+00 0.000000e+00
1
Step 146000
Ar 9.045210e-01 0.000000e+00 0.000000e+00
1
Step 147000
Ar 9.863461e-01 0.000000e+00 0.000000e+00
1
Step 148000
Ar 9.939192e-01 0.000000e+00 0.000000e+00
1
Step 149000
Ar 3.120773e-01 0.000000e+00 0.000000e+00
1
Step 150000
Ar 1.050054e+00 0.000000e+00 0.000000e+00
1
Step 151000
Ar 1.011581e+00 0.000000e+00 0.000000e+00
1
Step 152000
Ar 1.018720e+00 0.000000e+00 0.000000e+00
1
Step 153000
Ar 1.015140e+00 0.000000e+00 0.000000e+00
1
Step 154000
Ar 1.015658e+00 0.000000e+00 0.000000e+00
1
Step 155000
Ar 8.704888e-01 0.000000e+00 0.000000e+00
1
Step 156000
Ar 8.883728e-01 0.000000e+00 0.000000e+00
1
Step 157000
Ar 8.707817e-01 0.000000e+00 0.000000e+00
1
Step 158000
Ar 8.376021e-01 0.000000e+00 0.000000e+00
1
Step 159000
Ar 8.380041e-01 0.000000e+00 0.000000e+00
1
Step 160000
Ar 8.654221e-01 0.000000e+00 0.000000e+00
1
Step 161000
Ar 8.280059e-01 0.000000e+00 0.000000e+00
1
Step 162000
Ar 6.573686e-01 0.000000e+00 0.000000e+00
1
Step 163000
Ar 7.048933e-01 0.000000e+00 0.000000e+00
1
Step 164000
Ar 1.143665e-01 0.000000e+00 0.000000e+00
1
Step 165000
Ar -4.516635e-01 0.000000e+00 0.000000e+00
1
Step 166000
Ar -1.049157e+00 0.000000e+00 0.000000e+00
1
Step 167000
Ar -9.782314e-01 0.000000e+00 0.000000e+00
1
Step 168000
Ar -1.144072e+00 0.000000e+00 0.000000e+00
1
Step 169000
Ar -1.027831e+00 0.000000e+00 0.000000e+00
1
Step 170000
Ar -1.252296e+00 0.000000e+00 0.000000e+00
1
Step 171000
Ar -1.150466e+00 0.000000e+00 0.000000e+00
1
Step 172000
Ar -1.149932e+00 0.000000e+00 0.000000e+00
1
Step 173000
Ar -1.142291e+00 0.000000e+00 0.000000e+00
1
Step 174000
Ar -1.183350e+00 0.000000e+00 0.000000e+00
1
Step 175000
Ar -1.141796e+00 0.000000e+00 0.000000e+00
1
Step 176000
Ar -1.118920e+00 0.000000e+00 0.000000e+00
1
Step 177000
Ar -1.207389e+00 0.000000e+00 0.000000e+00
1
Step 178000
Ar -1.194658e+00 0.000000e+00 0.000000e+00
1
Step 179000
Ar -1.200344e+00 0.000000e+00 0.000000e+00
1
Step 180000
Ar -1.193062e+00 0.000000e+00 0.000000e+00
1
Step 181000
Ar -1.199491e+00 0.000000e+00 0.000000e+00
1
Step 182000
Ar -1.200965e+00 0.000000e+00 0.000000e+00
1
Step 183000
Ar -1.199099e+00 0.000000e+00 0.000000e+00
1
Step 184000
Ar -1.347425e+00 0.000000e+00 0.000000e+00
1
Step 185000
Ar -1.311464e+00 0.000000e+00 0.000000e+00
1
Step 186000
Ar -1.315573e+00 0.000000e+00 0.000000e+00
1
Step 187000
Ar -1.323721e+00 0.000000e+00 0.000000e+00
1
Step 188000
Ar -1.324570e+00 0.000000e+00 0.000000e+00
1
Step 189000
Ar -1.336838e+00 0.000000e+00 0.000000e+00
1
Step 190000
Ar -1.317085e+00 0.000000e+00 0.000000e+00
1
Step 191000
Ar -1.235958e+00 0.000000e+00 0.000000e+00
1
Step 192000
Ar -1.235734e+00 0.000000e+00 0.000000e+00
1
Step 193000
Ar -1.236936e+00 0.000000e+00 0.000000e+00
1
Step 194000
Ar -1.246342e+00 0.000000e+00 0.000000e+00
1
Step 195000
Ar -1.231827e+00 0.000000e+00 0.000000e+00
1
Step 196000
Ar -6.682934e-01 0.000000e+00 0.000000e+00
1
Step 197000
Ar -1.051529e+00 0.000000e+00 0.000000e+00
1
Step 198000
Ar -1.001500e+00 0.000000e+00 0.000000e+00
1
Step 199000
Ar -6.221525e-01 0.000000e+00 0.000000e+00
1
Step 200000
Ar -7.603973e-01 0.000000e+00 0.000000e+00
1
Step 201000
Ar -8.237821e-01 0.000000e+00 0.000000e+00
1
Step 202000
Ar -8.605197e-01 0.000000e+00 0.000000e+00
1
Step 203000
Ar -7.907567e-01 0.000000e+00 0.000000e+00
1
Step 204000
Ar -5.285948e-01 0.000000e+00 0.000000e+00
1
Step 205000
Ar -7.894532e-01 0.000000e+00 0.000000e+00
1
Step 206000
Ar -6.550723e-01 0.000000e+00 0.000000e+00
1
Step 207000
Ar -7.715976e-01 0.000000e+00 0.000000e+00
1
Step 208000
Ar -7.872239e-01 0.000000e+00 0.000000e+00
1
Step 209000
Ar -7.597580e-01 0.000000e+00 0.000000e+00
1
Step 210000
Ar -7.906284e-01 0.000000e+00 0.000000e+00
1
Step 211000
Ar -7.657993e-01 0.000000e+00 0.000000e+00
1
Step 212000
Ar -7.529152e-01 0.000000e+00 0.000000e+00
1
Step 213000
Ar -7.644622e-01 0.000000e+00 0.000000e+00
1
Step 214000
Ar -7.398203e-01 0.000000e+00 0.000000e+00
1
Step 215000
Ar -7.598988e-01 0.000000e+00 0.000000e+00
1
Step 216000
Ar -7.878627e-01 0.000000e+00 0.000000e+00
1
Step 217000
Ar -7.959016e-01 0.000000e+00 0.000000e+00
1
Step 218000
Ar -7.949867e-01 0.000000e+00 0.000000e+00
1
Step 219000
Ar -7.733906e-01 0.000000e+00 0.000000e+00
1
Step 220000
Ar -1.291001e+00 0.000000e+00 0.000000e+00
1
Step 221000
Ar -1.121727e+00 0.000000e+00 0.000000e+00
1
Step 222000
Ar -1.141342e+00 0.000000e+00 0.000000e+00
1
Step 223000
Ar -1.159876e+00 0.000000e+00 0.000000e+00
1
Step 224000
Ar -1.157387e+00 0.000000e+00 0.000000e+00
1
Step 225000
Ar -1.125262e+00 0.000000e+00 0.000000e+00
1
Step 226000
Ar -1.156384e+00 0.000000e+00 0.000000e+00
1
Step 227000
Ar -1.124723e+00 0.000000e+00 0.000000e+00
1
Step 228000
Ar -1.146789e+00 0.000000e+00 0.000000e+00
1
Step 229000
Ar -1.157361e+00 0.000000e+00 0.000000e+00
1
Step 230000
Ar -1.152567e+00 0.000000e+00 0.000000e+00
1
Step 231000
Ar -1.148633e+00 0.000000e+00 0.000000e+00
1
Step 232000
Ar -1.150039e+00 0.000000e+00 0.000000e+00
1
Step 233000
Ar -1.099877e+00 0.000000e+00 0.000000e+00
1
Step 234000
Ar -1.103537e+00 0.000000e+00 0.000000e+00
1
Step 235000
Ar -1.097292e+00 0.000000e+00 0.000000e+00
1
Step 236000
Ar -1.032229e+00 0.000000e+00 0.000000e+00
1
Step 237000
Ar -1.001490e+00 0.000000e+00 0.000000e+00
1
Step 238000
Ar -9.345832e-01 0.000000e+00 0.000000e+00
1
Step 239000
Ar -1.017139e+00 0.000000e+00 0.000000e+00
1
Step 240000
Ar -1.072452e+00 0.000000e+00 0.000000e+00
1
Step 241000
Ar -9.836961e-01 0.000000e+00 0.000000e+00
1
Step 242000
Ar -1.075371e+00 0.000000e+00 0.000000e+00
1
Step 243000
Ar -1.075423e+00 0.000000e+00 0.000000e+00
1
Step 244000
Ar -1.074812e+00 0.000000e+00 0.000000e+00
1
Step 245000
Ar -1.076519e+00 0.000000e+00 0.000000e+00
1
Step 246000
Ar -1.077135e+00 0.000000e+00 0.000000e+00
1
Step 247000
Ar -1.073676e+00 0.000000e+00 0.000000e+00
1
Step 248000
Ar -1.074759e+00 0.000000e+00 0.000000e+00
1
Step 249000
Ar -1.076764e+00 0.000000e+00 0.000000e+00
1
Step 250000
Ar -1.073531e+00 0.000000e+00 0.000000e+00
1
Step 251000
Ar -1.075454e+00 0.000000e+00 0.000000e+00
1
Step 252000
Ar -1.074328e+00 0.000000e+00 0.000000e+00
1
Step 253000
Ar -1.074565e+00 0.000000e+00 0.000000e+00
1
Step 254000
Ar -1.077455e+00 0.000000e+00 0.000000e+00
1
Step 255000
Ar -1.082279e+00 0.000000e+00 0.000000e+00
1
Step 256000
Ar -1.078176e+00 0.000000e+00 0.000000e+00
1
Step 257000
Ar -1.072144e+00 0.000000e+00 0.000000e+00
1
Step 258000
Ar -1.076342e+00 0.000000e+00 0.000000e+00
1
Step 259000
Ar -1.074598e+00 0.000000e+00 0.000000e+00
1
Step 260000
Ar -1.019668e+00 0.000000e+00 0.000000e+00
1
Step 261000
Ar -9.669108e-01 0.000000e+00 0.000000e+00
1
Step 262000
Ar -1.031905e+00 0.000000e+00 0.000000e+00
1
Step 263000
Ar -1.046056e+00 0.000000e+00 0.000000e+00
1
Step 264000
Ar -1.018367e+00 0.000000e+00 0.000000e+00
1
Step 265000
Ar -1.046870e+00 0.000000e+00 0.000000e+00
1
Step 266000
Ar -1.036019e+00 0.000000e+00 0.000000e+00
1
Step 267000
Ar -9.076161e-01 0.000000e+00 0.000000e+00
1
Step 268000
Ar -8.333956e-01 0.000000e+00 0.000000e+00
1
Step 269000
Ar -8.630258e-01 0.000000e+00 0.000000e+00
1
Step 270000
Ar -8.418992e-01 0.000000e+00 0.000000e+00
1
Step 271000
Ar -8.582688e-01 0.000000e+00 0.000000e+00
1
Step 272000
Ar -8.477146e-01 0.000000e+00 0.000000e+00
1
Step 273000
Ar -8.550351e-01 0.000000e+00 0.000000e+00
1
Step 274000
Ar -8.478879e-01 0.000000e+00 0.000000e+00
1
Step 275000
Ar -8.596606e-01 0.000000e+00 0.000000e+00
1
Step 276000
Ar -8.641469e-01 0.000000e+00 0.000000e+00
1
Step 277000
Ar -8.665429e-01 0.000000e+00 0.000000e+00
1
Step 278000
Ar -8.628463e-01 0.000000e+00 0.000000e+00
1
Step 279000
Ar -8.632320e-01 0.000000e+00 0.000000e+00
1
Step 280000
Ar -8.606414e-01 0.000000e+00 0.000000e+00
1
Step 281000
Ar -1.046857e+00 0.000000e+00 0.000000e+00
1
Step 282000
Ar -9.845251e-01 0.000000e+00 0.000000e+00
1
Step 283000
Ar -1.039152e+00 0.000000e+00 0.000000e+00
1
Step 284000
Ar -9.718601e-01 0.000000e+00 0.000000e+00
1
Step 285000
Ar -1.030477e+00 0.000000e+00 0.000000e+00
1
Step 286000
Ar -9.671984e-01 0.000000e+00 0.000000e+00
1
Step 287000
Ar -1.031364e+00 0.000000e+00 0.000000e+00
1
Step 288000
Ar -1.046776e+00 0.000000e+00 0.000000e+00
1
Step 289000
Ar -9.938612e-01 0.000000e+00 0.000000e+00
1
Step 290000
Ar -9.893753e-01 0.000000e+00 0.000000e+00
1
Step 291000
Ar -1.007742e+00 0.000000e+00 0.000000e+00
1
Step 292000
Ar -1.033787e+00 0.000000e+00 0.000000e+00
1
Step 293000
Ar -9.967401e-01 0.000000e+00 0.000000e+00
1
Step 294000
Ar -1.007569e+00 0.000000e+00 0.000000e+00
1
Step 295000
Ar -1.000455e+00 0.000000e+00 0.000000e+00
1
Step 296000
Ar -1.035252e+00 0.000000e+00 0.000000e+00
1
Step 297000
Ar -1.027864e+00 0.000000e+00 0.000000e+00
1
Step 298000
Ar -1.027690e+00 0.000000e+00 0.000000e+00
1
Step 299000
Ar -1.378871e+00 0.000000e+00 0.000000e+00
1
Step 300000
Ar -1.373309e+00 0.000000e+00 0.000000e+00
1
Step 301000
Ar -1.364627e+00 0.000000e+00 0.000000e+00
1
Step 302000
Ar -1.372771e+00 0.000000e+00 0.000000e+00
1
Step 303000
Ar -1.388356e+00 0.000000e+00 0.000000e+00
1
Step 304000
Ar -1.319372e+00 0.000000e+00 0.000000e+00
1
Step 305000
Ar -1.321152e+00 0.000000e+00 0.000000e+00
1
Step 306000
Ar -1.322415e+00 0.000000e+00 0.000000e+00
1
Step 307000
Ar -1.125352e+00 0.000000e+00 0.000000e+00
1
Step 308000
Ar -1.146738e+00 0.000000e+00 0.000000e+00
1
Step 309000
Ar -1.170015e+00 0.000000e+00 0.000000e+00
1
Step 310000
Ar -1.166430e+00 0.000000e+00 0.000000e+00
1
Step 311000
Ar -1.170757e+00 0.000000e+00 0.000000e+00
1
Step 312000
Ar -1.166507e+00 0.000000e+00 0.000000e+00
1
Step 313000
Ar -1.167783e+00 0.000000e+00 0.000000e+00
1
Step 314000
Ar -1.160315e+00 0.000000e+00 0.000000e+00
1
Step 315000
Ar -1.167722e+00 0.000000e+00 0.000000e+00
1
Step 316000
Ar -1.169240e+00 0.000000e+00 0.000000e+00
1
Step 317000
Ar -1.166968e+00 0.000000e+00 0.000000e+00
1
Step 318000
Ar -1.172886e+00 0.000000e+00 0.000000e+00
1
Step 319000
Ar -1.188986e+00 0.000000e+00 0.000000e+00
1
Step 320000
Ar -1.192122e+00 0.000000e+00 0.000000e+00
1
Step 321000
Ar -1.188986e+00 0.000000e+00 0.000000e+00
1
Step 322000
Ar -1.190073e+00 0.000000e+00 0.000000e+00
1
Step 323000
Ar -1.190784e+00 0.000000e+00 0.000000e+00
1
Step 324000
Ar -1.191722e+00 0.000000e+00 0.000000e+00
1
Step 325000
Ar -1.206138e+00 0.000000e+00 0.000000e+00
1
Step 326000
Ar -1.213267e+00 0.000000e+00 0.000000e+00
1
Step 327000
Ar -1.190455e+00 0.000000e+00 0.000000e+00
1
Step 328000
Ar -1.186003e+00 0.000000e+00 0.000000e+00
1
Step 329000
Ar -1.192907e+00 0.000000e+00 0.000000e+00
1
Step 330000
Ar -1.193572e+00 0.000000e+00 0.000000e+00
1
Step 331000
Ar -1.210448e+00 0.000000e+00 0.000000e+00
1
Step 332000
Ar -1.029962e+00 0.000000e+00 0.000000e+00
1
Step 333000
Ar -1.116450e+00 0.000000e+00 0.000000e+00
1
Step 334000
Ar -1.223999e+00 0.000000e+00 0.000000e+00
1
Step 335000
Ar -1.236481e+00 0.000000e+00 0.000000e+00
1
Step 336000
Ar -1.231255e+00 0.000000e+00 0.000000e+00
1
Step 337000
Ar -1.232164e+00 0.000000e+00 0.000000e+00
1
Step 338000
Ar -1.232564e+00 0.000000e+00 0.000000e+00
1
Step 339000
Ar -1.231391e+00 0.000000e+00 0.000000e+00
1
Step 340000
Ar -1.231699e+00 0.000000e+00 0.000000e+00
1
Step 341000
Ar -1.227248e+00 0.000000e+00 0.000000e+00
1
Step 342000
Ar -1.230877e+00 0.000000e+00 0.000000e+00
1
Step 343000
Ar -1.228923e+00 0.000000e+00 0.000000e+00
1
Step 344000
Ar -1.225944e+00 0.000000e+00 0.000000e+00
1
Step 345000
Ar -1.115106e+00 0.000000e+00 0.000000e+00
1
Step 346000
Ar -1.229003e+00 0.000000e+00 0.000000e+00
1
Step 347000
Ar -1.232434e+00 0.000000e+00 0.000000e+00
1
Step 348000
Ar -1.229602e+00 0.000000e+00 0.000000e+00
1
Step 349000
Ar -1.232203e+00 0.000000e+00 0.000000e+00
1
Step 350000
Ar -1.230652e+00 0.000000e+00 0.000000e+00
1
Step 351000
Ar -1.229118e+00 0.000000e+00 0.000000e+00
1
Step 352000
Ar -1.232301e+00 0.000000e+00 0.000000e+00
1
Step 353000
Ar -1.235652e+00 0.000000e+00 0.000000e+00
1
Step 354000
Ar -1.229976e+00 0.000000e+00 0.000000e+00
1
Step 355000
Ar -1.226020e+00 0.000000e+00 0.000000e+00
1
Step 356000
Ar -1.033759e+00 0.000000e+00 0.000000e+00
1
Step 357000
Ar -1.210174e+00 0.000000e+00 0.000000e+00
1
Step 358000
Ar -1.186774e+00 0.000000e+00 0.000000e+00
1
Step 359000
Ar -1.193274e+00 0.000000e+00 0.000000e+00
1
Step 360000
Ar -1.190976e+00 0.000000e+00 0.000000e+00
1
Step 361000
Ar -1.192581e+00 0.000000e+00 0.000000e+00
1
Step 362000
Ar -1.191005e+00 0.000000e+00 0.000000e+00
1
Step 363000
Ar -1.190918e+00 0.000000e+00 0.000000e+00
1
Step 364000
Ar -1.193026e+00 0.000000e+00 0.000000e+00
1
Step 365000
Ar -1.239351e+00 0.000000e+00 0.000000e+00
1
Step 366000
Ar -1.254577e+00 0.000000e+00 0.000000e+00
1
Step 367000
Ar -1.254777e+00 0.000000e+00 0.000000e+00
1
Step 368000
Ar -1.256191e+00 0.000000e+00 0.000000e+00
1
Step 369000
Ar -1.256825e+00 0.000000e+00 0.000000e+00
1
Step 370000
Ar -1.256449e+00 0.000000e+00 0.000000e+00
1
Step 371000
Ar -1.255498e+00 0.000000e+00 0.000000e+00
1
Step 372000
Ar -1.256949e+00 0.000000e+00 0.000000e+00
1
Step 373000
Ar -1.234040e+00 0.000000e+00 0.000000e+00
1
Step 374000
Ar -1.235565e+00 0.000000e+00 0.000000e+00
1
Step 375000
Ar -8.858727e-01 0.000000e+00 0.000000e+00
1
Step 376000
Ar -8.884984e-01 0.000000e+00 0.000000e+00
1
Step 377000
Ar -8.914343e-01 0.000000e+00 0.000000e+00
1
Step 378000
Ar -8.856945e-01 0.000000e+00 0.000000e+00
1
Step 379000
Ar -8.873545e-01 0.000000e+00 0.000000e+00
1
Step 380000
Ar -8.960978e-01 0.000000e+00 0.000000e+00
1
Step 381000
Ar -8.895869e-01 0.000000e+00 0.000000e+00
1
Step 382000
Ar -8.921728e-01 0.000000e+00 0.000000e+00
1
Step 383000
Ar -8.912972e-01 0.000000e+00 0.000000e+00
1
Step 384000
Ar -8.951765e-01 0.000000e+00 0.000000e+00
1
Step 385000
Ar -8.837550e-01 0.000000e+00 0.000000e+00
1
Step 386000
Ar -8.932238e-01 0.000000e+00 0.000000e+00
1
Step 387000
Ar -8.997089e-01 0.000000e+00 0.000000e+00
1
Step 388000
Ar -8.850474e-01 0.000000e+00 0.000000e+00
1
Step 389000
Ar -9.217269e-01 0.000000e+00 0.000000e+00
1
Step 390000
Ar -5.953759e-01 0.000000e+00 0.000000e+00
1
Step 391000
Ar -5.689547e-01 0.000000e+00 0.000000e+00
1
Step 392000
Ar -6.583425e-01 0.000000e+00 0.000000e+00
1
Step 393000
Ar -6.631182e-01 0.000000e+00 0.000000e+00
1
Step 394000
Ar -6.805205e-01 0.000000e+00 0.000000e+00
1
Step 395000
Ar -5.512915e-01 0.000000e+00 0.000000e+00
1
Step 396000
Ar -5.461262e-01 0.000000e+00 0.000000e+00
1
Step 397000
Ar -4.661914e-01 0.000000e+00 0.000000e+00
1
Step 398000
Ar -5.667423e-01 0.000000e+00 0.000000e+00
1
Step 399000
Ar -5.520447e-01 0.000000e+00 0.000000e+00
1
Step 400000
Ar 2.606851e-01 0.000000e+00 0.000000e+00
1
Step 401000
Ar 3.709351e-01 0.000000e+00 0.000000e+00
1
Step 402000
Ar 5.304200e-01 0.000000e+00 0.000000e+00
1
Step 403000
Ar 5.584430e-01 0.000000e+00 0.000000e+00
1
Step 404000
Ar 4.197356e-01 0.000000e+00 0.000000e+00
1
Step 405000
Ar 4.257651e-01 0.000000e+00 0.000000e+00
1
Step 406000
Ar 4.189701e-01 0.000000e+00 0.000000e+00
1
Step 407000
Ar 4.210219e-01 0.000000e+00 0.000000e+00
1
Step 408000
Ar 7.015112e-01 0.000000e+00 0.000000e+00
1
Step 409000
Ar 6.858020e-01 0.000000e+00 0.000000e+00
1
Step 410000
Ar 6.848695e-01 0.000000e+00 0.000000e+00
1
Step 411000
Ar 6.643304e-01 0.000000e+00 0.000000e+00
1
Step 412000
Ar 6.819085e-01 0.000000e+00 0.000000e+00
1
Step 413000
Ar 6.688699e-01 0.000000e+00 0.000000e+00
1
Step 414000
Ar 6.760734e-01 0.000000e+00 0.000000e+00
1
Step 415000
Ar 6.986724e-01 0.000000e+00 0.000000e+00
1
Step 416000
Ar 6.735722e-01 0.000000e+00 0.000000e+00
1
Step 417000
Ar 6.568755e-01 0.000000e+00 0.000000e+00
1
Step 418000
Ar 5.981504e-01 0.000000e+00 0.000000e+00
1
Step 419000
Ar 6.416913e-01 0.000000e+00 0.000000e+00
1
Step 420000
Ar 6.560920e-01 0.000000e+00 0.000000e+00
1
Step 421000
Ar 6.921177e-01 0.000000e+00 0.000000e+00
1
Step 422000
Ar 6.649963e-01 0.000000e+00 0.000000e+00
1
Step 423000
Ar 6.827907e-01 0.000000e+00 0.000000e+00
1
Step 424000
Ar 6.813205e-01 0.000000e+00 0.000000e+00
1
Step 425000
Ar 6.465764e-01 0.000000e+00 0.000000e+00
1
Step 426000
Ar 6.640525e-01 0.000000e+00 0.000000e+00
1
Step 427000
Ar 6.432327e-01 0.000000e+00 0.000000e+00
1
Step 428000
Ar 6.226681e-01 0.000000e+00 0.000000e+00
1
Step 429000
Ar 6.805085e-01 0.000000e+00 0.000000e+00
1
Step 430000
Ar 6.115544e-01 0.000000e+00 0.000000e+00
1
Step 431000
Ar 6.399966e-01 0.000000e+00 0.000000e+00
1
Step 432000
Ar 6.479116e-01 0.000000e+00 0.000000e+00
1
Step 433000
Ar 6.123154e-01 0.000000e+00 0.000000e+00
1
Step 434000
Ar 6.207940e-01 0.000000e+00 0.000000e+00
1
Step 435000
Ar 6.117780e-01 0.000000e+00 0.000000e+00
1
Step 436000
Ar 1.180246e+00 0.000000e+00 0.000000e+00
1
Step 437000
Ar 1.122262e+00 0.000000e+00 0.000000e+00
1
Step 438000
Ar 1.117889e+00 0.000000e+00 0.000000e+00
1
Step 439000
Ar 1.119066e+00 0.000000e+00 0.000000e+00
1
Step 440000
Ar 1.106258e+00 0.000000e+00 0.000000e+00
1
Step 441000
Ar 1.117315e+00 0.000000e+00 0.000000e+00
1
Step 442000
Ar 1.088024e+00 0.000000e+00 0.000000e+00
1
Step 443000
Ar 1.081801e+00 0.000000e+00 0.000000e+00
1
Step 444000
Ar 1.098547e+00 0.000000e+00 0.000000e+00
1
Step 445000
Ar 1.111436e+00 0.000000e+00 0.000000e+00
1
Step 446000
Ar 1.110259e+00 0.000000e+00 0.000000e+00
1
Step 447000
Ar 1.122904e+00 0.000000e+00 0.000000e+00
1
Step 448000
Ar 1.112777e+00 0.000000e+00 0.000000e+00
1
Step 449000
Ar 1.093737e+00 0.000000e+00 0.000000e+00
1
Step 450000
Ar 1.094065e+00 0.000000e+00 0.000000e+00
1
Step 451000
Ar 1.108209e+00 0.000000e+00 0.000000e+00
1
Step 452000
Ar 1.125005e+00 0.000000e+00 0.000000e+00
1
Step 453000
Ar 9.313660e-01 0.000000e+00 0.000000e+00
1
Step 454000
Ar 7.811593e-01 0.000000e+00 0.000000e+00
1
Step 455000
Ar 7.823282e-01 0.000000e+00 0.000000e+00
1
Step 456000
Ar 7.579221e-01 0.000000e+00 0.000000e+00
1
Step 457000
Ar 7.766112e-01 0.000000e+00 0.000000e+00
1
Step 458000
Ar 7.676488e-01 0.000000e+00 0.000000e+00
1
Step 459000
Ar 7.554878e-01 0.000000e+00 0.000000e+00
1
Step 460000
Ar 7.813589e-01 0.000000e+00 0.000000e+00
1
Step 461000
Ar 7.519024e-01 0.000000e+00 0.000000e+00
1
Step 462000
Ar 8.013699e-01 0.000000e+00 0.000000e+00
1
Step 463000
Ar 7.951285e-01 0.000000e+00 0.000000e+00
1
Step 464000
Ar 7.860721e-01 0.000000e+00 0.000000e+00
1
Step 465000
Ar 8.041481e-01 0.000000e+00 0.000000e+00
1
Step 466000
Ar 4.895105e-01 0.000000e+00 0.000000e+00
1
Step 467000
Ar 5.487593e-01 0.000000e+00 0.000000e+00
1
Step 468000
Ar 5.773189e-01 0.000000e+00 0.000000e+00
1
Step 469000
Ar 5.361741e-01 0.000000e+00 0.000000e+00
1
Step 470000
Ar 5.241156e-01 0.000000e+00 0.000000e+00
1
Step 471000
Ar 5.614634e-01 0.000000e+00 0.000000e+00
1
Step 472000
Ar 5.705139e-01 0.000000e+00 0.000000e+00
1
Step 473000
Ar 5.655099e-01 0.000000e+00 0.000000e+00
1
Step 474000
Ar 5.458585e-01 0.000000e+00 0.000000e+00
1
Step 475000
Ar 4.298956e-01 0.000000e+00 0.000000e+00
1
Step 476000
Ar 4.253386e-01 0.000000e+00 0.000000e+00
1
Step 477000
Ar 4.108924e-01 0.000000e+00 0.000000e+00
1
Step 478000
Ar 3.843600e-01 0.000000e+00 0.000000e+00
1
Step 479000
Ar 3.876097e-01 0.000000e+00 0.000000e+00
1
Step 480000
Ar 3.884652e-01 0.000000e+00 0.000000e+00
1
Step 481000
Ar 3.773351e-01 0.000000e+00 0.000000e+00
1
Step 482000
Ar 3.440463e-01 0.000000e+00 0.000000e+00
1
Step 483000
Ar 3.363466e-01 0.000000e+00 0.000000e+00
1
Step 484000
Ar 3.409412e-01 0.000000e+00 0.000000e+00
1
Step 485000
Ar 3.471607e-01 0.000000e+00 0.000000e+00
1
Step 486000
Ar 3.397974e-01 0.000000e+00 0.000000e+00
1
Step 487000
Ar 3.404315e-01 0.000000e+00 0.000000e+00
1
Step 488000
Ar 3.462447e-01 0.000000e+00 0.000000e+00
1
Step 489000
Ar 3.418573e-01 0.000000e+00 0.000000e+00
1
Step 490000
Ar 6.944093e-01 0.000000e+00 0.000000e+00
1
Step 491000
Ar 6.953041e-01 0.000000e+00 0.000000e+00
1
Step 492000
Ar 6.984412e-01 0.000000e+00 0.000000e+00
1
Step 493000
Ar 3.466847e-01 0.000000e+00 0.000000e+00
1
Step 494000
Ar -3.034936e-01 0.000000e+00 0.000000e+00
1
Step 495000
Ar -5.799686e-01 0.000000e+00 0.000000e+00
1
Step 496000
Ar -5.852756e-01 0.000000e+00 0.000000e+00
1
Step 497000
Ar -5.788999e-01 0.000000e+00 0.000000e+00
1
Step 498000
Ar -5.851192e-01 0.000000e+00 0.000000e+00
1
Step 499000
Ar -5.834387e-01 0.000000e+00 0.000000e+00
1
Step 500000
Ar -5.285809e-01 0.000000e+00 0.000000e+00
1
Step 501000
Ar -5.267271e-01 0.000000e+00 0.000000e+00
1
Step 502000
Ar -5.230385e-01 0.000000e+00 0.000000e+00
1
Step 503000
Ar -4.749695e-01 0.000000e+00 0.000000e+00
1
Step 504000
Ar -5.162585e-01 0.000000e+00 0.000000e+00
1
Step 505000
Ar -5.221760e-01 0.000000e+00 0.000000e+00
1
Step 506000
Ar -4.614425e-01 0.000000e+00 0.000000e+00
1
Step 507000
Ar -5.248068e-01 0.000000e+00 0.000000e+00
1
Step 508000
Ar -5.347682e-01 0.000000e+00 0.000000e+00
1
Step 509000
Ar -5.121631e-01 0.000000e+00 0.000000e+00
1
Step 510000
Ar -4.974897e-01 0.000000e+00 0.000000e+00
1
Step 511000
Ar -5.065546e-01 0.000000e+00 0.000000e+00
1
Step 512000
Ar -5.029758e-01 0.000000e+00 0.000000e+00
1
Step 513000
Ar -5.166271e-01 0.000000e+00 0.000000e+00
1
Step 514000
Ar -5.122013e-01 0.000000e+00 0.000000e+00
1
Step 515000
Ar -4.448007e-01 0.000000e+00 0.000000e+00
1
Step 516000
Ar -4.763650e-01 0.000000e+00 0.000000e+00
1
Step 517000
Ar -4.920079e-01 0.000000e+00 0.000000e+00
1
Step 518000
Ar -4.757982e-01 0.000000e+00 0.000000e+00
1
Step 519000
Ar -5.093131e-01 0.000000e+00 0.000000e+00
1
Step 520000
Ar -4.886296e-01 0.000000e+00 0.000000e+00
1
Step 521000
Ar -5.105595e-01 0.000000e+00 0.000000e+00
1
Step 522000
Ar -4.899605e-01 0.000000e+00 0.000000e+00
1
Step 523000
Ar -5.003916e-01 0.000000e+00 0.000000e+00
1
Step 524000
Ar -4.500096e-01 0.000000e+00 0.000000e+00
1
Step 525000
Ar -4.902008e-01 0.000000e+00 0.000000e+00
1
Step 526000
Ar -5.094289e-01 0.000000e+00 0.000000e+00
1
Step 527000
Ar -4.605771e-01 0.000000e+00 0.000000e+00
1
Step 528000
Ar -4.936841e-01 0.000000e+00 0.000000e+00
1
Step 529000
Ar -4.669142e-01 0.000000e+00 0.000000e+00
1
Step 530000
Ar -5.616461e-01 0.000000e+00 0.000000e+00
1
Step 531000
Ar -5.596229e-01 0.000000e+00 0.000000e+00
1
Step 532000
Ar -5.587862e-01 0.000000e+00 0.000000e+00
1
Step 533000
Ar -5.618793e-01 0.000000e+00 0.000000e+00
1
Step 534000
Ar -7.424157e-01 0.000000e+00 0.000000e+00
1
Step 535000
Ar -7.144484e-01 0.000000e+00 0.000000e+00
1
Step 536000
Ar -7.408699e-01 0.000000e+00 0.000000e+00
1
Step 537000
Ar -7.197240e-01 0.000000e+00 0.000000e+00
1
Step 538000
Ar -7.085057e-01 0.000000e+00 0.000000e+00
1
Step 539000
Ar -7.514755e-01 0.000000e+00 0.000000e+00
1
Step 540000
Ar -7.313950e-01 0.000000e+00 0.000000e+00
1
Step 541000
Ar -7.298390e-01 0.000000e+00 0.000000e+00
1
Step 542000
Ar -7.319849e-01 0.000000e+00 0.000000e+00
1
Step 543000
Ar -7.445725e-01 0.000000e+00 0.000000e+00
1
Step 544000
Ar -7.450519e-01 0.000000e+00 0.000000e+00
1
Step 545000
Ar -7.414036e-01 0.000000e+00 0.000000e+00
1
Step 546000
Ar -7.314309e-01 0.000000e+00 0.000000e+00
1
Step 547000
Ar -7.428950e-01 0.000000e+00 0.000000e+00
1
Step 548000
Ar -7.384336e-01 0.000000e+00 0.000000e+00
1
Step 549000
Ar -7.434324e-01 0.000000e+00 0.000000e+00
1
Step 550000
Ar -7.287533e-01 0.000000e+00 0.000000e+00
1
Step 551000
Ar -7.464367e-01 0.000000e+00 0.000000e+00
1
Step 552000
Ar -7.406602e-01 0.000000e+00 0.000000e+00
1
Step 553000
Ar -7.438496e-01 0.000000e+00 0.000000e+00
1
Step 554000
Ar -7.531332e-01 0.000000e+00 0.000000e+00
1
Step 555000
Ar -7.493976e-01 0.000000e+00 0.000000e+00
1
Step 556000
Ar -7.432680e-01 0.000000e+00 0.000000e+00
1
Step 557000
Ar -7.484436e-01 0.000000e+00 0.000000e+00
1
Step 558000
Ar -7.469186e-01 0.000000e+00 0.000000e+00
1
Step 559000
Ar -7.477988e-01 0.000000e+00 0.000000e+00
1
Step 560000
Ar -7.385690e-01 0.000000e+00 0.000000e+00
1
Step 561000
Ar -7.422717e-01 0.000000e+00 0.000000e+00
1
Step 562000
Ar -6.472246e-01 0.000000e+00 0.000000e+00
1
Step 563000
Ar -6.731562e-01 0.000000e+00 0.000000e+00
1
Step 564000
Ar -6.566123e-01 0.000000e+00 0.000000e+00
1
Step 565000
Ar -6.732818e-01 0.000000e+00 0.000000e+00
1
Step 566000
Ar -6.564641e-01 0.000000e+00 0.000000e+00
1
Step 567000
Ar -6.508374e-01 0.000000e+00 0.000000e+00
1
Step 568000
Ar -6.811114e-01 0.000000e+00 0.000000e+00
1
Step 569000
Ar -6.846462e-01 0.000000e+00 0.000000e+00
1
Step 570000
Ar -6.812204e-01 0.000000e+00 0.000000e+00
1
Step 571000
Ar -6.817894e-01 0.000000e+00 0.000000e+00
1
Step 572000
Ar -6.820367e-01 0.000000e+00 0.000000e+00
1
Step 573000
Ar -7.058490e-01 0.000000e+00 0.000000e+00
1
Step 574000
Ar -7.043219e-01 0.000000e+00 0.000000e+00
1
Step 575000
Ar -7.045698e-01 0.000000e+00 0.000000e+00
1
Step 576000
Ar -7.083000e-01 0.000000e+00 0.000000e+00
1
Step 577000
Ar -7.090428e-01 0.000000e+00 0.000000e+00
1
Step 578000
Ar -7.057729e-01 0.000000e+00 0.000000e+00
1
Step 579000
Ar -7.061719e-01 0.000000e+00 0.000000e+00
1
Step 580000
Ar -7.417111e-01 0.000000e+00 0.000000e+00
1
Step 581000
Ar -7.396748e-01 0.000000e+00 0.000000e+00
1
Step 582000
Ar -7.462224e-01 0.000000e+00 0.000000e+00
1
Step 583000
Ar -7.408889e-01 0.000000e+00 0.000000e+00
1
Step 584000
Ar -7.363971e-01 0.000000e+00 0.000000e+00
1
Step 585000
Ar -4.814943e-01 0.000000e+00 0.000000e+00
1
Step 586000
Ar -4.795876e-01 0.000000e+00 0.000000e+00
1
Step 587000
Ar 2.584659e-01 0.000000e+00 0.000000e+00
1
Step 588000
Ar -1.074467e-01 0.000000e+00 0.000000e+00
1
Step 589000
Ar 3.015044e-01 0.000000e+00 0.000000e+00
1
Step 590000
Ar 2.818323e-01 0.000000e+00 0.000000e+00
1
Step 591000
Ar 3.005105e-01 0.000000e+00 0.000000e+00
1
Step 592000
Ar 2.913235e-01 0.000000e+00 0.000000e+00
1
Step 593000
Ar 2.857412e-01 0.000000e+00 0.000000e+00
1
Step 594000
Ar 2.840097e-01 0.000000e+00 0.000000e+00
1
Step 595000
Ar 2.917328e-01 0.000000e+00 0.000000e+00
1
Step 596000
Ar 2.861372e-01 0.000000e+00 0.000000e+00
1
Step 597000
Ar 2.888397e-01 0.000000e+00 0.000000e+00
1
Step 598000
Ar 2.914947e-01 0.000000e+00 0.000000e+00
1
Step 599000
Ar 2.928274e-01 0.000000e+00 0.000000e+00
1
Step 600000
Ar 2.938160e-01 0.000000e+00 0.000000e+00
1
Step 601000
Ar 2.914988e-01 0.000000e+00 0.000000e+00
1
Step 602000
Ar 2.853621e-01 0.000000e+00 0.000000e+00
1
Step 603000
Ar 2.935794e-01 0.000000e+00 0.000000e+00
1
Step 604000
Ar 2.803534e-01 0.000000e+00 0.000000e+00
1
Step 605000
Ar 5.781956e-01 0.000000e+00 0.000000e+00
1
Step 606000
Ar 5.701030e-01 0.000000e+00 0.000000e+00
1
Step 607000
Ar 5.739051e-01 0.000000e+00 0.000000e+00
1
Step 608000
Ar 5.811774e-01 0.000000e+00 0.000000e+00
1
Step 609000
Ar 5.718880e-01 0.000000e+00 0.000000e+00
1
Step 610000
Ar 6.753390e-01 0.000000e+00 0.000000e+00
1
Step 611000
Ar 6.747158e-01 0.000000e+00 0.000000e+00
1
Step 612000
Ar 6.716322e-01 0.000000e+00 0.000000e+00
1
Step 613000
Ar 6.716301e-01 0.000000e+00 0.000000e+00
1
Step 614000
Ar 6.732435e-01 0.000000e+00 0.000000e+00
1
Step 615000
Ar 6.715455e-01 0.000000e+00 0.000000e+00
1
Step 616000
Ar 6.775688e-01 0.000000e+00 0.000000e+00
1
Step 617000
Ar 6.756290e-01 0.000000e+00 0.000000e+00
1
Step 618000
Ar 5.421445e-01 0.000000e+00 0.000000e+00
1
Step 619000
Ar 4.591760e-01 0.000000e+00 0.000000e+00
1
Step 620000
Ar 4.592877e-01 0.000000e+00 0.000000e+00
1
Step 621000
Ar 4.605184e-01 0.000000e+00 0.000000e+00
1
Step 622000
Ar 4.636728e-01 0.000000e+00 0.000000e+00
1
Step 623000
Ar 4.636218e-01 0.000000e+00 0.000000e+00
1
Step 624000
Ar 4.575074e-01 0.000000e+00 0.000000e+00
1
Step 625000
Ar 4.145382e-01 0.000000e+00 0.000000e+00
1
Step 626000
Ar 4.929137e-01 0.000000e+00 0.000000e+00
1
Step 627000
Ar 5.014340e-01 0.000000e+00 0.000000e+00
1
Step 628000
Ar 4.970377e-01 0.000000e+00 0.000000e+00
1
Step 629000
Ar 4.884003e-01 0.000000e+00 0.000000e+00
1
Step 630000
Ar 5.068632e-01 0.000000e+00 0.000000e+00
1
Step 631000
Ar 5.122850e-01 0.000000e+00 0.000000e+00
1
Step 632000
Ar 5.088232e-01 0.000000e+00 0.000000e+00
1
Step 633000
Ar 6.046200e-01 0.000000e+00 0.000000e+00
1
Step 634000
Ar 6.021355e-01 0.000000e+00 0.000000e+00
1
Step 635000
Ar 5.972762e-01 0.000000e+00 0.000000e+00
1
Step 636000
Ar 5.963689e-01 0.000000e+00 0.000000e+00
1
Step 637000
Ar 5.086001e-01 0.000000e+00 0.000000e+00
1
Step 638000
Ar 5.077961e-01 0.000000e+00 0.000000e+00
1
Step 639000
Ar 5.118484e-01 0.000000e+00 0.000000e+00
1
Step 640000
Ar 3.706838e-01 0.000000e+00 0.000000e+00
1
Step 641000
Ar 3.742483e-01 0.000000e+00 0.000000e+00
1
Step 642000
Ar 3.682630e-01 0.000000e+00 0.000000e+00
1
Step 643000
Ar 3.746453e-01 0.000000e+00 0.000000e+00
1
Step 644000
Ar 3.725166e-01 0.000000e+00 0.000000e+00
1
Step 645000
Ar 4.821610e-01 0.000000e+00 0.000000e+00
1
Step 646000
Ar 4.841736e-01 0.000000e+00 0.000000e+00
1
Step 647000
Ar 4.886056e-01 0.000000e+00 0.000000e+00
1
Step 648000
Ar 4.827587e-01 0.000000e+00 0.000000e+00
1
Step 649000