1
Step 120000
Ar 1.008771e+00 0.000000e+00 0.000000e+00
1
Step 121000
Ar 9.997231e-01 0.000000e+00 0.000000e+00
1
Step 122000
Ar 1.002389e+00 0.000000e+00 0.000000e+00
1
Step 123000
Ar 1.015810e+00 0.000000e+00 0.000000e+00
1
Step 124000
Ar 1.002765e+00 0.000000e+00 0.000000e+00
1
Step 125000
Ar 9.802716e-01 0.000000e+00 0.000000e+00
1
Step 126000
Ar 9.679835e-01 0.000000e+00 0.000000e+00
1
Step 127000
Ar 9.627201e-01 0.000000e+00 0.000000e+00
1
Step 128000
Ar 9.680934e-01 0.000000e+00 0.000000e+00
1
Step 129000
Ar 9.659439e-01 0.000000e+00 0.000000e+00
1
Step 130000
Ar 9.673049e-01 0.000000e+00 0.000000e+00
1
Step 131000
Ar 9.566184e-01 0.000000e+00 0.000000e+00
1
Step 132000
Ar 9.522401e-01 0.000000e+00 0.000000e+00
1
Step 133000
Ar 9.503891e-01 0.000000e+00 0.000000e+00
1
Step 134000
Ar 9.512946e-01 0.000000e+00 0.000000e+00
1
Step 135000
Ar 9.538635e-01 0.000000e+00 0.000000e+00
1
Step 136000
Ar 9.923843e-01 0.000000e+00 0.000000e+00
1
Step 137000
Ar 1.005599e+00 0.000000e+00 0.000000e+00
1
Step 138000
Ar 1.014650e+00 0.000000e+00 0.000000e+00
1
Step 139000
Ar 1.003835e+00 0.000000e+00 0.000000e+00
1
Step 140000
Ar 1.018557e+00 0.000000e+00 0.000000e+00
1
Step 141000
Ar 1.006529e+00 0.000000e+00 0.000000e+00
1
Step 142000
Ar 9.993420e-01 0.000000e+00 0.000000e+00
1
Step 143000
Ar 9.998237e-01 0.000000e+00 0.000000e+00
1
Step 144000
Ar 1.005657e+00 0.000000e+00 0.000000e+00
1
Step 145000
Ar 1.005818e+00 0.000000e+00 0.000000e+00
1
Step 146000
Ar 9.911615e-01 0.000000e+00 0.000000e+00
1
Step 147000
Ar 9.910770e-01 0.000000e+00 0.000000e+00
1
Step 148000
Ar 9.944109e-01 0.000000e+00 0.000000e+00
1
Step 149000
Ar 9.917618e-01 0.000000e+00 0.000000e+00
1
Step 150000
Ar 9.908508e-01 0.000000e+00 0.000000e+00
1
Step 151000
Ar 1.037578e+00 0.000000e+00 0.000000e+00
1
Step 152000
Ar 1.030579e+00 0.000000e+00 0.000000e+00
1
Step 153000
Ar 1.031365e+00 0.000000e+00 0.000000e+00
1
Step 154000
Ar 1.030324e+00 0.000000e+00 0.000000e+00
1
Step 155000
Ar 1.028829e+00 0.000000e+00 0.000000e+00
1
Step 156000
Ar 1.040963e+00 0.000000e+00 0.000000e+00
1
Step 157000
Ar 1.036492e+00 0.000000e+00 0.000000e+00
1
Step 158000
Ar 1.044650e+00 0.000000e+00 0.000000e+00
1
Step 159000
Ar 1.041608e+00 0.000000e+00 0.000000e+00
1
Step 160000
Ar 1.039309e+00 0.000000e+00 0.000000e+00
1
Step 161000
Ar 1.054541e+00 0.000000e+00 0.000000e+00
1
Step 162000
Ar 1.050446e+00 0.000000e+00 0.000000e+00
1
Step 163000
Ar 1.055612e+00 0.000000e+00 0.000000e+00
1
Step 164000
Ar 1.048956e+00 0.000000e+00 0.000000e+00
1
Step 165000
Ar 1.046428e+00 0.000000e+00 0.000000e+00
1
Step 166000
Ar 1.057996e+00 0.000000e+00 0.000000e+00
1
Step 167000
Ar 1.062386e+00 0.000000e+00 0.000000e+00
1
Step 168000
Ar 1.054325e+00 0.000000e+00 0.000000e+00
1
Step 169000
Ar 1.058892e+00 0.000000e+00 0.000000e+00
1
Step 170000
Ar 1.060830e+00 0.000000e+00 0.000000e+00
1
Step 171000
Ar 9.955599e-01 0.000000e+00 0.000000e+00
1
Step 172000
Ar 9.996077e-01 0.000000e+00 0.000000e+00
1
Step 173000
Ar 9.643679e-01 0.000000e+00 0.000000e+00
1
Step 174000
Ar 9.387582e-01 0.000000e+00 0.000000e+00
1
Step 175000
Ar 9.418588e-01 0.000000e+00 0.000000e+00
1
Step 176000
Ar 9.330400e-01 0.000000e+00 0.000000e+00
1
Step 177000
Ar 9.283691e-01 0.000000e+00 0.000000e+00
1
Step 178000
Ar 9.280212e-01 0.000000e+00 0.000000e+00
1
Step 179000
Ar 9.342487e-01 0.000000e+00 0.000000e+00
1
Step 180000
Ar 9.208582e-01 0.000000e+00 0.000000e+00
1
Step 181000
Ar 9.108118e-01 0.000000e+00 0.000000e+00
1
Step 182000
Ar 9.094591e-01 0.000000e+00 0.000000e+00
1
Step 183000
Ar 9.089885e-01 0.000000e+00 0.000000e+00
1
Step 184000
Ar 9.070568e-01 0.000000e+00 0.000000e+00
1
Step 185000
Ar 9.126517e-01 0.000000e+00 0.000000e+00
1
Step 186000
Ar 9.029390e-01 0.000000e+00 0.000000e+00
1
Step 187000
Ar 9.026860e-01 0.000000e+00 0.000000e+00
1
Step 188000
Ar 9.064907e-01 0.000000e+00 0.000000e+00
1
Step 189000
Ar 9.023313e-01 0.000000e+00 0.000000e+00
1
Step 190000
Ar 9.056028e-01 0.000000e+00 0.000000e+00
1
Step 191000
Ar 9.982824e-01 0.000000e+00 0.000000e+00
1
Step 192000
Ar 1.090456e+00 0.000000e+00 0.000000e+00
1
Step 193000
Ar 1.070615e+00 0.000000e+00 0.000000e+00
1
Step 194000
Ar 1.071831e+00 0.000000e+00 0.000000e+00
1
Step 195000
Ar 1.070192e+00 0.000000e+00 0.000000e+00
1
Step 196000
Ar 1.083803e+00 0.000000e+00 0.000000e+00
1
Step 197000
Ar 1.080764e+00 0.000000e+00 0.000000e+00
1
Step 198000
Ar 1.081318e+00 0.000000e+00 0.000000e+00
1
Step 199000
Ar 1.014617e+00 0.000000e+00 0.000000e+00
1
Step 200000
Ar 9.722840e-01 0.000000e+00 0.000000e+00
1
Step 201000
Ar 8.915740e-01 0.000000e+00 0.000000e+00
1
Step 202000
Ar 8.965400e-01 0.000000e+00 0.000000e+00
1
Step 203000
Ar 8.952575e-01 0.000000e+00 0.000000e+00
1
Step 204000
Ar 8.942077e-01 0.000000e+00 0.000000e+00
1
Step 205000
Ar 8.915736e-01 0.000000e+00 0.000000e+00
1
Step 206000
Ar 9.322037e-01 0.000000e+00 0.000000e+00
1
Step 207000
Ar 9.561389e-01 0.000000e+00 0.000000e+00
1
Step 208000
Ar 1.083407e+00 0.000000e+00 0.000000e+00
1
Step 209000
Ar 1.078268e+00 0.000000e+00 0.000000e+00
1
Step 210000
Ar 1.083643e+00 0.000000e+00 0.000000e+00
1
Step 211000
Ar 1.012544e+00 0.000000e+00 0.000000e+00
1
Step 212000
Ar 1.001287e+00 0.000000e+00 0.000000e+00
1
Step 213000
Ar 9.965607e-01 0.000000e+00 0.000000e+00
1
Step 214000
Ar 1.007683e+00 0.000000e+00 0.000000e+00
1
Step 215000
Ar 9.988271e-01 0.000000e+00 0.000000e+00
1
Step 216000
Ar 1.018357e+00 0.000000e+00 0.000000e+00
1
Step 217000
Ar 9.829764e-01 0.000000e+00 0.000000e+00
1
Step 218000
Ar 9.864278e-01 0.000000e+00 0.000000e+00
1
Step 219000
Ar 1.011886e+00 0.000000e+00 0.000000e+00
1
Step 220000
Ar 1.009873e+00 0.000000e+00 0.000000e+00
1
Step 221000
Ar 1.017924e+00 0.000000e+00 0.000000e+00
1
Step 222000
Ar 1.030365e+00 0.000000e+00 0.000000e+00
1
Step 223000
Ar 1.025394e+00 0.000000e+00 0.000000e+00
1
Step 224000
Ar 1.025463e+00 0.000000e+00 0.000000e+00
1
Step 225000
Ar 1.021530e+00 0.000000e+00 0.000000e+00
1
Step 226000
Ar 1.033104e+00 0.000000e+00 0.000000e+00
1
Step 227000
Ar 1.035569e+00 0.000000e+00 0.000000e+00
1
Step 228000
Ar 1.031938e+00 0.000000e+00 0.000000e+00
1
Step 229000
Ar 1.052955e+00 0.000000e+00 0.000000e+00
1
Step 230000
Ar 1.033658e+00 0.000000e+00 0.000000e+00
1
Step 231000
Ar 8.832283e-01 0.000000e+00 0.000000e+00
1
Step 232000
Ar 8.827364e-01 0.000000e+00 0.000000e+00
1
Step 233000
Ar 9.702667e-01 0.000000e+00 0.000000e+00
1
Step 234000
Ar 8.794967e-01 0.000000e+00 0.000000e+00
1
Step 235000
Ar 8.817637e-01 0.000000e+00 0.000000e+00
1
Step 236000
Ar 9.836890e-01 0.000000e+00 0.000000e+00
1
Step 237000
Ar 9.857252e-01 0.000000e+00 0.000000e+00
1
Step 238000
Ar 9.797664e-01 0.000000e+00 0.000000e+00
1
Step 239000
Ar 9.865614e-01 0.000000e+00 0.000000e+00
1
Step 240000
Ar 9.335201e-01 0.000000e+00 0.000000e+00
1
Step 241000
Ar 1.053739e+00 0.000000e+00 0.000000e+00
1
Step 242000
Ar 1.052326e+00 0.000000e+00 0.000000e+00
1
Step 243000
Ar 9.868627e-01 0.000000e+00 0.000000e+00
1
Step 244000
Ar 9.859057e-01 0.000000e+00 0.000000e+00
1
Step 245000
Ar 9.890425e-01 0.000000e+00 0.000000e+00
1
Step 246000
Ar 1.011309e+00 0.000000e+00 0.000000e+00
1
Step 247000
Ar 9.606828e-01 0.000000e+00 0.000000e+00
1
Step 248000
Ar 9.739228e-01 0.000000e+00 0.000000e+00
1
Step 249000
Ar 9.783795e-01 0.000000e+00 0.000000e+00
1
Step 250000
Ar 1.053902e+00 0.000000e+00 0.000000e+00
1
Step 251000
Ar 1.002125e+00 0.000000e+00 0.000000e+00
1
Step 252000
Ar 1.001140e+00 0.000000e+00 0.000000e+00
1
Step 253000
Ar 9.989320e-01 0.000000e+00 0.000000e+00
1
Step 254000
Ar 9.972488e-01 0.000000e+00 0.000000e+00
1
Step 255000
Ar 1.003627e+00 0.000000e+00 0.000000e+00
1
Step 256000
Ar 9.266014e-01 0.000000e+00 0.000000e+00
1
Step 257000
Ar 8.728016e-01 0.000000e+00 0.000000e+00
1
Step 258000
Ar 8.756760e-01 0.000000e+00 0.000000e+00
1
Step 259000
Ar 8.731085e-01 0.000000e+00 0.000000e+00
1
Step 260000
Ar 8.714671e-01 0.000000e+00 0.000000e+00
1
Step 261000
Ar 9.832745e-01 0.000000e+00 0.000000e+00
1
Step 262000
Ar 1.049226e+00 0.000000e+00 0.000000e+00
1
Step 263000
Ar 1.025343e+00 0.000000e+00 0.000000e+00
1
Step 264000
Ar 7.702870e-01 0.000000e+00 0.000000e+00
1
Step 265000
Ar 9.584951e-01 0.000000e+00 0.000000e+00
1
Step 266000
Ar 1.037533e+00 0.000000e+00 0.000000e+00
1
Step 267000
Ar 1.045405e+00 0.000000e+00 0.000000e+00
1
Step 268000
Ar 9.550914e-01 0.000000e+00 0.000000e+00
1
Step 269000
Ar 1.043960e+00 0.000000e+00 0.000000e+00
1
Step 270000
Ar 9.268631e-01 0.000000e+00 0.000000e+00
1
Step 271000
Ar 9.812946e-01 0.000000e+00 0.000000e+00
1
Step 272000
Ar 9.762443e-01 0.000000e+00 0.000000e+00
1
Step 273000
Ar 9.810717e-01 0.000000e+00 0.000000e+00
1
Step 274000
Ar 9.791999e-01 0.000000e+00 0.000000e+00
1
Step 275000
Ar 9.862838e-01 0.000000e+00 0.000000e+00
1
Step 276000
Ar 1.165720e+00 0.000000e+00 0.000000e+00
1
Step 277000
Ar 1.011223e+00 0.000000e+00 0.000000e+00
1
Step 278000
Ar 9.189035e-01 0.000000e+00 0.000000e+00
1
Step 279000
Ar 9.507014e-01 0.000000e+00 0.000000e+00
1
Step 280000
Ar 8.584653e-01 0.000000e+00 0.000000e+00
1
Step 281000
Ar 1.095741e+00 0.000000e+00 0.000000e+00
1
Step 282000
Ar 1.094698e+00 0.000000e+00 0.000000e+00
1
Step 283000
Ar 8.655712e-01 0.000000e+00 0.000000e+00
1
Step 284000
Ar 9.537510e-01 0.000000e+00 0.000000e+00
1
Step 285000
Ar 1.005076e+00 0.000000e+00 0.000000e+00
1
Step 286000
Ar 1.127951e+00 0.000000e+00 0.000000e+00
1
Step 287000
Ar 9.187845e-01 0.000000e+00 0.000000e+00
1
Step 288000
Ar 1.104072e+00 0.000000e+00 0.000000e+00
1
Step 289000
Ar 1.047093e+00 0.000000e+00 0.000000e+00
1
Step 290000
Ar 9.766379e-01 0.000000e+00 0.000000e+00
1
Step 291000
Ar 1.044212e+00 0.000000e+00 0.000000e+00
1
Step 292000
Ar 1.073816e+00 0.000000e+00 0.000000e+00
1
Step 293000
Ar 9.026618e-01 0.000000e+00 0.000000e+00
1
Step 294000
Ar 1.068838e+00 0.000000e+00 0.000000e+00
1
Step 295000
Ar 9.580196e-01 0.000000e+00 0.000000e+00
1
Step 296000
Ar 9.512965e-01 0.000000e+00 0.000000e+00
1
Step 297000
Ar 1.042670e+00 0.000000e+00 0.000000e+00
1
Step 298000
Ar 1.043121e+00 0.000000e+00 0.000000e+00
1
Step 299000
Ar 1.100218e+00 0.000000e+00 0.000000e+00
1
Step 300000
Ar 1.101580e+00 0.000000e+00 0.000000e+00
1
Step 301000
Ar 9.657459e-01 0.000000e+00 0.000000e+00
1
Step 302000
Ar 1.060562e+00 0.000000e+00 0.000000e+00
1
Step 303000
Ar 1.040645e+00 0.000000e+00 0.000000e+00
1
Step 304000
Ar 1.014227e+00 0.000000e+00 0.000000e+00
1
Step 305000
Ar 8.370755e-01 0.000000e+00 0.000000e+00
1
Step 306000
Ar 8.944999e-01 0.000000e+00 0.000000e+00
1
Step 307000
Ar 1.147926e+00 0.000000e+00 0.000000e+00
1
Step 308000
Ar 9.425469e-01 0.000000e+00 0.000000e+00
1
Step 309000
Ar 8.345486e-01 0.000000e+00 0.000000e+00
1
Step 310000
Ar 1.104387e+00 0.000000e+00 0.000000e+00
1
Step 311000
Ar 1.044448e+00 0.000000e+00 0.000000e+00
1
Step 312000
Ar 1.043626e+00 0.000000e+00 0.000000e+00
1
Step 313000
Ar 1.090504e+00 0.000000e+00 0.000000e+00
1
Step 314000
Ar 1.123411e+00 0.000000e+00 0.000000e+00
1
Step 315000
Ar 8.249791e-01 0.000000e+00 0.000000e+00
1
Step 316000
Ar 1.092031e+00 0.000000e+00 0.000000e+00
1
Step 317000
Ar 1.031543e+00 0.000000e+00 0.000000e+00
1
Step 318000
Ar 1.121966e+00 0.000000e+00 0.000000e+00
1
Step 319000
Ar 1.040151e+00 0.000000e+00 0.000000e+00
1
Step 320000
Ar 8.952583e-01 0.000000e+00 0.000000e+00
1
Step 321000
Ar 9.911446e-01 0.000000e+00 0.000000e+00
1
Step 322000
Ar 1.047674e+00 0.000000e+00 0.000000e+00
1
Step 323000
Ar 9.067929e-01 0.000000e+00 0.000000e+00
1
Step 324000
Ar 1.057629e+00 0.000000e+00 0.000000e+00
1
Step 325000
Ar 1.041907e+00 0.000000e+00 0.000000e+00
1
Step 326000
Ar 1.073713e+00 0.000000e+00 0.000000e+00
1
Step 327000
Ar 1.062141e+00 0.000000e+00 0.000000e+00
1
Step 328000
Ar 1.074003e+00 0.000000e+00 0.000000e+00
1
Step 329000
Ar 8.828312e-01 0.000000e+00 0.000000e+00
1
Step 330000
Ar 1.070971e+00 0.000000e+00 0.000000e+00
1
Step 331000
Ar 8.144662e-01 0.000000e+00 0.000000e+00
1
Step 332000
Ar 1.169963e+00 0.000000e+00 0.000000e+00
1
Step 333000
Ar 1.055397e+00 0.000000e+00 0.000000e+00
1
Step 334000
Ar 1.050730e+00 0.000000e+00 0.000000e+00
1
Step 335000
Ar 1.049511e+00 0.000000e+00 0.000000e+00
1
Step 336000
Ar 1.060261e+00 0.000000e+00 0.000000e+00
1
Step 337000
Ar 1.058094e+00 0.000000e+00 0.000000e+00
1
Step 338000
Ar 1.062940e+00 0.000000e+00 0.000000e+00
1
Step 339000
Ar 1.063427e+00 0.000000e+00 0.000000e+00
1
Step 340000
Ar 1.058654e+00 0.000000e+00 0.000000e+00
1
Step 341000
Ar 1.003588e+00 0.000000e+00 0.000000e+00
1
Step 342000
Ar 8.915331e-01 0.000000e+00 0.000000e+00
1
Step 343000
Ar 1.173490e+00 0.000000e+00 0.000000e+00
1
Step 344000
Ar 1.115111e+00 0.000000e+00 0.000000e+00
1
Step 345000
Ar 1.114002e+00 0.000000e+00 0.000000e+00
1
Step 346000
Ar 1.120662e+00 0.000000e+00 0.000000e+00
1
Step 347000
Ar 1.123730e+00 0.000000e+00 0.000000e+00
1
Step 348000
Ar 1.119450e+00 0.000000e+00 0.000000e+00
1
Step 349000
Ar 1.121262e+00 0.000000e+00 0.000000e+00
1
Step 350000
Ar 1.121912e+00 0.000000e+00 0.000000e+00
1
Step 351000
Ar 1.102399e+00 0.000000e+00 0.000000e+00
1
Step 352000
Ar 8.982658e-01 0.000000e+00 0.000000e+00
1
Step 353000
Ar 7.609293e-01 0.000000e+00 0.000000e+00
1
Step 354000
Ar 9.358131e-01 0.000000e+00 0.000000e+00
1
Step 355000
Ar 1.021335e+00 0.000000e+00 0.000000e+00
1
Step 356000
Ar 7.850530e-01 0.000000e+00 0.000000e+00
1
Step 357000
Ar 1.030201e+00 0.000000e+00 0.000000e+00
1
Step 358000
Ar 1.032767e+00 0.000000e+00 0.000000e+00
1
Step 359000
Ar 1.027853e+00 0.000000e+00 0.000000e+00
1
Step 360000
Ar 1.032903e+00 0.000000e+00 0.000000e+00
1
Step 361000
Ar 1.095913e+00 0.000000e+00 0.000000e+00
1
Step 362000
Ar 1.126735e+00 0.000000e+00 0.000000e+00
1
Step 363000
Ar 9.895839e-01 0.000000e+00 0.000000e+00
1
Step 364000
Ar 9.671824e-01 0.000000e+00 0.000000e+00
1
Step 365000
Ar 7.019381e-01 0.000000e+00 0.000000e+00
1
Step 366000
Ar 9.701486e-01 0.000000e+00 0.000000e+00
1
Step 367000
Ar 1.163050e+00 0.000000e+00 0.000000e+00
1
Step 368000
Ar 8.934262e-01 0.000000e+00 0.000000e+00
1
Step 369000
Ar 9.977373e-01 0.000000e+00 0.000000e+00
1
Step 370000
Ar 7.678187e-01 0.000000e+00 0.000000e+00
1
Step 371000
Ar 1.064180e+00 0.000000e+00 0.000000e+00
1
Step 372000
Ar 8.987189e-01 0.000000e+00 0.000000e+00
1
Step 373000
Ar 1.043342e+00 0.000000e+00 0.000000e+00
1
Step 374000
Ar 9.550154e-01 0.000000e+00 0.000000e+00
1
Step 375000
Ar 1.005285e+00 0.000000e+00 0.000000e+00
1
Step 376000
Ar 1.175116e+00 0.000000e+00 0.000000e+00
1
Step 377000
Ar 1.063806e+00 0.000000e+00 0.000000e+00
1
Step 378000
Ar 9.405197e-01 0.000000e+00 0.000000e+00
1
Step 379000
Ar 6.718010e-01 0.000000e+00 0.000000e+00
1
Step 380000
Ar 1.163415e+00 0.000000e+00 0.000000e+00
1
Step 381000
Ar 9.481643e-01 0.000000e+00 0.000000e+00
1
Step 382000
Ar 1.064411e+00 0.000000e+00 0.000000e+00
1
Step 383000
Ar 8.991703e-01 0.000000e+00 0.000000e+00
1
Step 384000
Ar 7.841079e-01 0.000000e+00 0.000000e+00
1
Step 385000
Ar 6.465016e-01 0.000000e+00 0.000000e+00
1
Step 386000
Ar 1.206682e+00 0.000000e+00 0.000000e+00
1
Step 387000
Ar 1.076202e+00 0.000000e+00 0.000000e+00
1
Step 388000
Ar 6.843226e-01 0.000000e+00 0.000000e+00
1
Step 389000
Ar 1.081111e+00 0.000000e+00 0.000000e+00
1
Step 390000
Ar 1.145579e+00 0.000000e+00 0.000000e+00
1
Step 391000
Ar 8.919219e-01 0.000000e+00 0.000000e+00
1
Step 392000
Ar 1.082396e+00 0.000000e+00 0.000000e+00
1
Step 393000
Ar 9.073247e-01 0.000000e+00 0.000000e+00
1
Step 394000
Ar 1.022809e+00 0.000000e+00 0.000000e+00
1
Step 395000
Ar 1.210543e+00 0.000000e+00 0.000000e+00
1
Step 396000
Ar 1.089649e+00 0.000000e+00 0.000000e+00
1
Step 397000
Ar 1.072606e+00 0.000000e+00 0.000000e+00
1
Step 398000
Ar 1.092100e+00 0.000000e+00 0.000000e+00
1
Step 399000
Ar 8.489799e-01 0.000000e+00 0.000000e+00
1
Step 400000
Ar 1.206803e+00 0.000000e+00 0.000000e+00
1
Step 401000
Ar 7.373469e-01 0.000000e+00 0.000000e+00
1
Step 402000
Ar 1.083500e+00 0.000000e+00 0.000000e+00
1
Step 403000
Ar 8.227451e-01 0.000000e+00 0.000000e+00
1
Step 404000
Ar 1.295777e+00 0.000000e+00 0.000000e+00
1
Step 405000
Ar 1.079828e+00 0.000000e+00 0.000000e+00
1
Step 406000
Ar 1.180784e+00 0.000000e+00 0.000000e+00
1
Step 407000
Ar 7.187482e-01 0.000000e+00 0.000000e+00
1
Step 408000
Ar 9.012753e-01 0.000000e+00 0.000000e+00
1
Step 409000
Ar 1.033750e+00 0.000000e+00 0.000000e+00
1
Step 410000
Ar 9.445154e-01 0.000000e+00 0.000000e+00
1
Step 411000
Ar 1.102490e+00 0.000000e+00 0.000000e+00
1
Step 412000
Ar 8.526517e-01 0.000000e+00 0.000000e+00
1
Step 413000
Ar -9.869068e-01 0.000000e+00 0.000000e+00
1
Step 414000
Ar -1.003504e+00 0.000000e+00 0.000000e+00
1
Step 415000
Ar -9.905465e-01 0.000000e+00 0.000000e+00
1
Step 416000
Ar -1.013035e+00 0.000000e+00 0.000000e+00
1
Step 417000
Ar -1.002085e+00 0.000000e+00 0.000000e+00
1
Step 418000
Ar -1.003415e+00 0.000000e+00 0.000000e+00
1
Step 419000
Ar -1.011529e+00 0.000000e+00 0.000000e+00
1
Step 420000
Ar -1.018000e+00 0.000000e+00 0.000000e+00
1
Step 421000
Ar -1.027827e+00 0.000000e+00 0.000000e+00
1
Step 422000
Ar -1.033428e+00 0.000000e+00 0.000000e+00
1
Step 423000
Ar -1.027512e+00 0.000000e+00 0.000000e+00
1
Step 424000
Ar -1.031198e+00 0.000000e+00 0.000000e+00
1
Step 425000
Ar -1.034038e+00 0.000000e+00 0.000000e+00
1
Step 426000
Ar -9.738843e-01 0.000000e+00 0.000000e+00
1
Step 427000
Ar -9.776608e-01 0.000000e+00 0.000000e+00
1
Step 428000
Ar -9.707122e-01 0.000000e+00 0.000000e+00
1
Step 429000
Ar -9.755639e-01 0.000000e+00 0.000000e+00
1
Step 430000
Ar -9.817390e-01 0.000000e+00 0.000000e+00
1
Step 431000
Ar -9.645128e-01 0.000000e+00 0.000000e+00
1
Step 432000
Ar -9.717027e-01 0.000000e+00 0.000000e+00
1
Step 433000
Ar -9.641247e-01 0.000000e+00 0.000000e+00
1
Step 434000
Ar -9.631859e-01 0.000000e+00 0.000000e+00
1
Step 435000
Ar -9.640546e-01 0.000000e+00 0.000000e+00
1
Step 436000
Ar -1.045424e+00 0.000000e+00 0.000000e+00
1
Step 437000
Ar -1.045566e+00 0.000000e+00 0.000000e+00
1
Step 438000
Ar -1.050017e+00 0.000000e+00 0.000000e+00
1
Step 439000
Ar -1.052671e+00 0.000000e+00 0.000000e+00
1
Step 440000
Ar -1.047578e+00 0.000000e+00 0.000000e+00
1
Step 441000
Ar -9.494248e-01 0.000000e+00 0.000000e+00
1
Step 442000
Ar -9.522225e-01 0.000000e+00 0.000000e+00
1
Step 443000
Ar -9.521678e-01 0.000000e+00 0.000000e+00
1
Step 444000
Ar -9.533224e-01 0.000000e+00 0.000000e+00
1
Step 445000
Ar -9.473366e-01 0.000000e+00 0.000000e+00
1
Step 446000
Ar -9.317520e-01 0.000000e+00 0.000000e+00
1
Step 447000
Ar -9.360130e-01 0.000000e+00 0.000000e+00
1
Step 448000
Ar -9.307065e-01 0.000000e+00 0.000000e+00
1
Step 449000
Ar -9.353949e-01 0.000000e+00 0.000000e+00
1
Step 450000
Ar -9.401519e-01 0.000000e+00 0.000000e+00
1
Step 451000
Ar -9.271895e-01 0.000000e+00 0.000000e+00
1
Step 452000
Ar -9.324663e-01 0.000000e+00 0.000000e+00
1
Step 453000
Ar -9.308224e-01 0.000000e+00 0.000000e+00
1
Step 454000
Ar -9.309611e-01 0.000000e+00 0.000000e+00
1
Step 455000
Ar -9.311229e-01 0.000000e+00 0.000000e+00
1
Step 456000
Ar -9.214409e-01 0.000000e+00 0.000000e+00
1
Step 457000
Ar -9.171213e-01 0.000000e+00 0.000000e+00
1
Step 458000
Ar -9.238551e-01 0.000000e+00 0.000000e+00
1
Step 459000
Ar -9.166305e-01 0.000000e+00 0.000000e+00
1
Step 460000
Ar -9.207375e-01 0.000000e+00 0.000000e+00
1
Step 461000
Ar -9.747820e-01 0.000000e+00 0.000000e+00
1
Step 462000
Ar -1.001895e+00 0.000000e+00 0.000000e+00
1
Step 463000
Ar -1.002365e+00 0.000000e+00 0.000000e+00
1
Step 464000
Ar -9.558859e-01 0.000000e+00 0.000000e+00
1
Step 465000
Ar -1.007896e+00 0.000000e+00 0.000000e+00
1
Step 466000
Ar -8.581561e-01 0.000000e+00 0.000000e+00
1
Step 467000
Ar -1.006013e+00 0.000000e+00 0.000000e+00
1
Step 468000
Ar -9.141576e-01 0.000000e+00 0.000000e+00
1
Step 469000
Ar -9.072729e-01 0.000000e+00 0.000000e+00
1
Step 470000
Ar -9.069559e-01 0.000000e+00 0.000000e+00
1
Step 471000
Ar -1.001873e+00 0.000000e+00 0.000000e+00
1
Step 472000
Ar -1.048461e+00 0.000000e+00 0.000000e+00
1
Step 473000
Ar -8.965259e-01 0.000000e+00 0.000000e+00
1
Step 474000
Ar -1.030726e+00 0.000000e+00 0.000000e+00
1
Step 475000
Ar -8.919669e-01 0.000000e+00 0.000000e+00
1
Step 476000
Ar -1.018513e+00 0.000000e+00 0.000000e+00
1
Step 477000
Ar -8.367497e-01 0.000000e+00 0.000000e+00
1
Step 478000
Ar -1.060553e+00 0.000000e+00 0.000000e+00
1
Step 479000
Ar -8.846441e-01 0.000000e+00 0.000000e+00
1
Step 480000
Ar -1.059521e+00 0.000000e+00 0.000000e+00
1
Step 481000
Ar -1.069364e+00 0.000000e+00 0.000000e+00
1
Step 482000
Ar -1.073673e+00 0.000000e+00 0.000000e+00
1
Step 483000
Ar -1.073969e+00 0.000000e+00 0.000000e+00
1
Step 484000
Ar -1.069634e+00 0.000000e+00 0.000000e+00
1
Step 485000
Ar -1.071087e+00 0.000000e+00 0.000000e+00
1
Step 486000
Ar -9.812618e-01 0.000000e+00 0.000000e+00
1
Step 487000
Ar -9.443493e-01 0.000000e+00 0.000000e+00
1
Step 488000
Ar -8.838707e-01 0.000000e+00 0.000000e+00
1
Step 489000
Ar -8.823604e-01 0.000000e+00 0.000000e+00
1
Step 490000
Ar -8.829142e-01 0.000000e+00 0.000000e+00
1
Step 491000
Ar -9.830034e-01 0.000000e+00 0.000000e+00
1
Step 492000
Ar -1.049773e+00 0.000000e+00 0.000000e+00
1
Step 493000
Ar -1.021460e+00 0.000000e+00 0.000000e+00
1
Step 494000
Ar -9.121105e-01 0.000000e+00 0.000000e+00
1
Step 495000
Ar -1.007181e+00 0.000000e+00 0.000000e+00
1
Step 496000
Ar -8.730350e-01 0.000000e+00 0.000000e+00
1
Step 497000
Ar -1.055299e+00 0.000000e+00 0.000000e+00
1
Step 498000
Ar -1.025090e+00 0.000000e+00 0.000000e+00
1
Step 499000
Ar -9.876964e-01 0.000000e+00 0.000000e+00
1
Step 500000
Ar -8.746057e-01 0.000000e+00 0.000000e+00
1
Step 501000
Ar -1.083253e+00 0.000000e+00 0.000000e+00
1
Step 502000
Ar -1.082798e+00 0.000000e+00 0.000000e+00
1
Step 503000
Ar -8.670740e-01 0.000000e+00 0.000000e+00
1
Step 504000
Ar -9.680234e-01 0.000000e+00 0.000000e+00
1
Step 505000
Ar -1.038444e+00 0.000000e+00 0.000000e+00
1
Step 506000
Ar -1.079368e+00 0.000000e+00 0.000000e+00
1
Step 507000
Ar -1.087257e+00 0.000000e+00 0.000000e+00
1
Step 508000
Ar -8.424211e-01 0.000000e+00 0.000000e+00
1
Step 509000
Ar -1.101002e+00 0.000000e+00 0.000000e+00
1
Step 510000
Ar -1.081080e+00 0.000000e+00 0.000000e+00
1
Step 511000
Ar -1.091366e+00 0.000000e+00 0.000000e+00
1
Step 512000
Ar -8.306400e-01 0.000000e+00 0.000000e+00
1
Step 513000
Ar -1.094432e+00 0.000000e+00 0.000000e+00
1
Step 514000
Ar -1.089043e+00 0.000000e+00 0.000000e+00
1
Step 515000
Ar -1.089939e+00 0.000000e+00 0.000000e+00
1
Step 516000
Ar -1.090542e+00 0.000000e+00 0.000000e+00
1
Step 517000
Ar -1.100382e+00 0.000000e+00 0.000000e+00
1
Step 518000
Ar -1.102291e+00 0.000000e+00 0.000000e+00
1
Step 519000
Ar -1.085941e+00 0.000000e+00 0.000000e+00
1
Step 520000
Ar -8.651245e-01 0.000000e+00 0.000000e+00
1
Step 521000
Ar -1.021672e+00 0.000000e+00 0.000000e+00
1
Step 522000
Ar -1.140234e+00 0.000000e+00 0.000000e+00
1
Step 523000
Ar -1.084003e+00 0.000000e+00 0.000000e+00
1
Step 524000
Ar -1.098056e+00 0.000000e+00 0.000000e+00
1
Step 525000
Ar -1.114802e+00 0.000000e+00 0.000000e+00
1
Step 526000
Ar -8.843330e-01 0.000000e+00 0.000000e+00
1
Step 527000
Ar -1.087952e+00 0.000000e+00 0.000000e+00
1
Step 528000
Ar -1.048525e+00 0.000000e+00 0.000000e+00
1
Step 529000
Ar -1.053692e+00 0.000000e+00 0.000000e+00
1
Step 530000
Ar -1.060474e+00 0.000000e+00 0.000000e+00
1
Step 531000
Ar -7.899321e-01 0.000000e+00 0.000000e+00
1
Step 532000
Ar -9.127335e-01 0.000000e+00 0.000000e+00
1
Step 533000
Ar -1.071740e+00 0.000000e+00 0.000000e+00
1
Step 534000
Ar -9.778444e-01 0.000000e+00 0.000000e+00
1
Step 535000
Ar -1.075717e+00 0.000000e+00 0.000000e+00
1
Step 536000
Ar -8.543291e-01 0.000000e+00 0.000000e+00
1
Step 537000
Ar -8.583615e-01 0.000000e+00 0.000000e+00
1
Step 538000
Ar -8.588950e-01 0.000000e+00 0.000000e+00
1
Step 539000
Ar -1.049035e+00 0.000000e+00 0.000000e+00
1
Step 540000
Ar -1.101575e+00 0.000000e+00 0.000000e+00
1
Step 541000
Ar -1.084923e+00 0.000000e+00 0.000000e+00
1
Step 542000
Ar -1.047920e+00 0.000000e+00 0.000000e+00
1
Step 543000
Ar -9.003485e-01 0.000000e+00 0.000000e+00
1
Step 544000
Ar -8.549945e-01 0.000000e+00 0.000000e+00
1
Step 545000
Ar -8.532443e-01 0.000000e+00 0.000000e+00
1
Step 546000
Ar -8.678194e-01 0.000000e+00 0.000000e+00
1
Step 547000
Ar -9.953712e-01 0.000000e+00 0.000000e+00
1
Step 548000
Ar -8.442349e-01 0.000000e+00 0.000000e+00
1
Step 549000
Ar -9.748191e-01 0.000000e+00 0.000000e+00
1
Step 550000
Ar -9.729618e-01 0.000000e+00 0.000000e+00
1
Step 551000
Ar -1.014254e+00 0.000000e+00 0.000000e+00
1
Step 552000
Ar -1.024695e+00 0.000000e+00 0.000000e+00
1
Step 553000
Ar -7.977824e-01 0.000000e+00 0.000000e+00
1
Step 554000
Ar -8.582401e-01 0.000000e+00 0.000000e+00
1
Step 555000
Ar -9.678449e-01 0.000000e+00 0.000000e+00
1
Step 556000
Ar -1.029234e+00 0.000000e+00 0.000000e+00
1
Step 557000
Ar -9.797439e-01 0.000000e+00 0.000000e+00
1
Step 558000
Ar -7.805592e-01 0.000000e+00 0.000000e+00
1
Step 559000
Ar -7.942648e-01 0.000000e+00 0.000000e+00
1
Step 560000
Ar -7.593070e-01 0.000000e+00 0.000000e+00
1
Step 561000
Ar -1.139138e+00 0.000000e+00 0.000000e+00
1
Step 562000
Ar -1.043191e+00 0.000000e+00 0.000000e+00
1
Step 563000
Ar -1.072507e+00 0.000000e+00 0.000000e+00
1
Step 564000
Ar -1.080248e+00 0.000000e+00 0.000000e+00
1
Step 565000
Ar -1.149424e+00 0.000000e+00 0.000000e+00
1
Step 566000
Ar -8.421262e-01 0.000000e+00 0.000000e+00
1
Step 567000
Ar -9.671709e-01 0.000000e+00 0.000000e+00
1
Step 568000
Ar -1.105252e+00 0.000000e+00 0.000000e+00
1
Step 569000
Ar -9.425936e-01 0.000000e+00 0.000000e+00
1
Step 570000
Ar -1.087889e+00 0.000000e+00 0.000000e+00
1
Step 571000
Ar -1.048397e+00 0.000000e+00 0.000000e+00
1
Step 572000
Ar -7.946540e-01 0.000000e+00 0.000000e+00
1
Step 573000
Ar -8.999410e-01 0.000000e+00 0.000000e+00
1
Step 574000
Ar -1.195366e+00 0.000000e+00 0.000000e+00
1
Step 575000
Ar -9.879963e-01 0.000000e+00 0.000000e+00
1
Step 576000
Ar -1.140826e+00 0.000000e+00 0.000000e+00
1
Step 577000
Ar -1.046792e+00 0.000000e+00 0.000000e+00
1
Step 578000
Ar -9.063878e-01 0.000000e+00 0.000000e+00
1
Step 579000
Ar -1.078130e+00 0.000000e+00 0.000000e+00
1
Step 580000
Ar -9.804929e-01 0.000000e+00 0.000000e+00
1
Step 581000
Ar -9.362548e-01 0.000000e+00 0.000000e+00
1
Step 582000
Ar -9.711537e-01 0.000000e+00 0.000000e+00
1
Step 583000
Ar -1.226762e+00 0.000000e+00 0.000000e+00
1
Step 584000
Ar -6.703689e-01 0.000000e+00 0.000000e+00
1
Step 585000
Ar -1.046782e+00 0.000000e+00 0.000000e+00
1
Step 586000
Ar -1.113352e+00 0.000000e+00 0.000000e+00
1
Step 587000
Ar -8.298661e-01 0.000000e+00 0.000000e+00
1
Step 588000
Ar -8.809869e-01 0.000000e+00 0.000000e+00
1
Step 589000
Ar -1.050032e+00 0.000000e+00 0.000000e+00
1
Step 590000
Ar -1.104826e+00 0.000000e+00 0.000000e+00
1
Step 591000
Ar -1.158438e+00 0.000000e+00 0.000000e+00
1
Step 592000
Ar -9.354919e-01 0.000000e+00 0.000000e+00
1
Step 593000
Ar -7.384754e-01 0.000000e+00 0.000000e+00
1
Step 594000
Ar -1.025325e+00 0.000000e+00 0.000000e+00
1
Step 595000
Ar -1.024445e+00 0.000000e+00 0.000000e+00
1
Step 596000
Ar -8.442470e-01 0.000000e+00 0.000000e+00
1
Step 597000
Ar -1.048342e+00 0.000000e+00 0.000000e+00
1
Step 598000
Ar -1.103569e+00 0.000000e+00 0.000000e+00
1
Step 599000
Ar -1.026057e+00 0.000000e+00 0.000000e+00
1
Step 600000
Ar -1.016102e+00 0.000000e+00 0.000000e+00
1
Step 601000
Ar -9.676793e-01 0.000000e+00 0.000000e+00
1
Step 602000
Ar -1.121265e+00 0.000000e+00 0.000000e+00
1
Step 603000
Ar -1.258667e+00 0.000000e+00 0.000000e+00
1
Step 604000
Ar -1.279621e+00 0.000000e+00 0.000000e+00
1
Step 605000
Ar -9.672935e-01 0.000000e+00 0.000000e+00
1
Step 606000
Ar -7.015923e-01 0.000000e+00 0.000000e+00
1
Step 607000
Ar -1.110981e+00 0.000000e+00 0.000000e+00
1
Step 608000
Ar -1.123199e+00 0.000000e+00 0.000000e+00
1
Step 609000
Ar -1.171823e+00 0.000000e+00 0.000000e+00
1
Step 610000
Ar -1.042074e+00 0.000000e+00 0.000000e+00
1
Step 611000
Ar -9.767799e-01 0.000000e+00 0.000000e+00
1
Step 612000
Ar -1.113674e+00 0.000000e+00 0.000000e+00
1
Step 613000
Ar -9.330933e-01 0.000000e+00 0.000000e+00
1
Step 614000
Ar -9.838136e-01 0.000000e+00 0.000000e+00
1
Step 615000
Ar -1.066854e+00 0.000000e+00 0.000000e+00
1
Step 616000
Ar -1.123605e+00 0.000000e+00 0.000000e+00
1
Step 617000
Ar -1.061680e+00 0.000000e+00 0.000000e+00
1
Step 618000
Ar -1.072941e+00 0.000000e+00 0.000000e+00
1
Step 619000
Ar -1.005229e+00 0.000000e+00 0.000000e+00
1
Step 620000
Ar -8.801491e-01 0.000000e+00 0.000000e+00
1
Step 621000
Ar -8.684350e-01 0.000000e+00 0.000000e+00
1
Step 622000
Ar -8.700219e-01 0.000000e+00 0.000000e+00
1
Step 623000
Ar -8.634087e-01 0.000000e+00 0.000000e+00
1
Step 624000
Ar -1.037011e+00 0.000000e+00 0.000000e+00
1
Step 625000
Ar -9.818158e-01 0.000000e+00 0.000000e+00
1
Step 626000
Ar -6.481505e-01 0.000000e+00 0.000000e+00
1
Step 627000
Ar -8.545573e-01 0.000000e+00 0.000000e+00
1
Step 628000
Ar -8.213934e-01 0.000000e+00 0.000000e+00
1
Step 629000
Ar -1.109816e+00 0.000000e+00 0.000000e+00
1
Step 630000
Ar -8.559109e-01 0.000000e+00 0.000000e+00
1
Step 631000
Ar -6.968684e-01 0.000000e+00 0.000000e+00
1
Step 632000
Ar -6.783111e-01 0.000000e+00 0.000000e+00
1
Step 633000
Ar -1.122086e+00 0.000000e+00 0.000000e+00
1
Step 634000
Ar -8.480224e-01 0.000000e+00 0.000000e+00
1
Step 635000
Ar -8.405564e-01 0.000000e+00 0.000000e+00
1
Step 636000
Ar -6.046313e-01 0.000000e+00 0.000000e+00
1
Step 637000
Ar -1.185852e+00 0.000000e+00 0.000000e+00
1
Step 638000
Ar -1.124771e+00 0.000000e+00 0.000000e+00
1
Step 639000
Ar -1.127286e+00 0.000000e+00 0.000000e+00
1
Step 640000
Ar -1.015988e+00 0.000000e+00 0.000000e+00
1
Step 641000
Ar -1.158949e+00 0.000000e+00 0.000000e+00
1
Step 642000
Ar -8.261736e-01 0.000000e+00 0.000000e+00
1
Step 643000
Ar 5.666154e-01 0.000000e+00 0.000000e+00
1
Step 644000
Ar 9.988275e-01 0.000000e+00 0.000000e+00
1
Step 645000
Ar 1.183965e+00 0.000000e+00 0.000000e+00
1
Step 646000
Ar 8.514002e-01 0.000000e+00 0.000000e+00
1
Step 647000
Ar 7.844817e-01 0.000000e+00 0.000000e+00
1
Step 648000
Ar 1.127800e+00 0.000000e+00 0.000000e+00
1
Step 649000
Ar 9.126011e-01 0.000000e+00 0.000000e+00
1
Step 650000
Ar 1.129006e+00 0.000000e+00 0.000000e+00
1
Step 651000