1
Step 120000
Ar 9.767715e-01 0.000000e+00 0.000000e+00
1
Step 121000
Ar 9.890823e-01 0.000000e+00 0.000000e+00
1
Step 122000
Ar 9.823247e-01 0.000000e+00 0.000000e+00
1
Step 123000
Ar 1.006789e+00 0.000000e+00 0.000000e+00
1
Step 124000
Ar 1.011077e+00 0.000000e+00 0.000000e+00
1
Step 125000
Ar 1.018049e+00 0.000000e+00 0.000000e+00
1
Step 126000
Ar 1.026959e+00 0.000000e+00 0.000000e+00
1
Step 127000
Ar 1.030524e+00 0.000000e+00 0.000000e+00
1
Step 128000
Ar 1.038420e+00 0.000000e+00 0.000000e+00
1
Step 129000
Ar 1.031925e+00 0.000000e+00 0.000000e+00
1
Step 130000
Ar 1.027762e+00 0.000000e+00 0.000000e+00
1
Step 131000
Ar 9.981859e-01 0.000000e+00 0.000000e+00
1
Step 132000
Ar 9.966025e-01 0.000000e+00 0.000000e+00
1
Step 133000
Ar 9.952650e-01 0.000000e+00 0.000000e+00
1
Step 134000
Ar 9.940159e-01 0.000000e+00 0.000000e+00
1
Step 135000
Ar 1.004476e+00 0.000000e+00 0.000000e+00
1
Step 136000
Ar 9.882417e-01 0.000000e+00 0.000000e+00
1
Step 137000
Ar 9.798483e-01 0.000000e+00 0.000000e+00
1
Step 138000
Ar 9.883277e-01 0.000000e+00 0.000000e+00
1
Step 139000
Ar 9.797683e-01 0.000000e+00 0.000000e+00
1
Step 140000
Ar 9.941387e-01 0.000000e+00 0.000000e+00
1
Step 141000
Ar 9.811373e-01 0.000000e+00 0.000000e+00
1
Step 142000
Ar 9.791397e-01 0.000000e+00 0.000000e+00
1
Step 143000
Ar 9.792934e-01 0.000000e+00 0.000000e+00
1
Step 144000
Ar 9.809844e-01 0.000000e+00 0.000000e+00
1
Step 145000
Ar 9.694491e-01 0.000000e+00 0.000000e+00
1
Step 146000
Ar 9.831043e-01 0.000000e+00 0.000000e+00
1
Step 147000
Ar 9.800421e-01 0.000000e+00 0.000000e+00
1
Step 148000
Ar 9.834761e-01 0.000000e+00 0.000000e+00
1
Step 149000
Ar 9.825740e-01 0.000000e+00 0.000000e+00
1
Step 150000
Ar 9.806950e-01 0.000000e+00 0.000000e+00
1
Step 151000
Ar 1.041134e+00 0.000000e+00 0.000000e+00
1
Step 152000
Ar 1.041396e+00 0.000000e+00 0.000000e+00
1
Step 153000
Ar 1.042041e+00 0.000000e+00 0.000000e+00
1
Step 154000
Ar 1.040225e+00 0.000000e+00 0.000000e+00
1
Step 155000
Ar 1.038217e+00 0.000000e+00 0.000000e+00
1
Step 156000
Ar 1.052210e+00 0.000000e+00 0.000000e+00
1
Step 157000
Ar 1.051999e+00 0.000000e+00 0.000000e+00
1
Step 158000
Ar 1.052823e+00 0.000000e+00 0.000000e+00
1
Step 159000
Ar 1.060367e+00 0.000000e+00 0.000000e+00
1
Step 160000
Ar 1.049914e+00 0.000000e+00 0.000000e+00
1
Step 161000
Ar 9.408415e-01 0.000000e+00 0.000000e+00
1
Step 162000
Ar 9.531676e-01 0.000000e+00 0.000000e+00
1
Step 163000
Ar 9.506826e-01 0.000000e+00 0.000000e+00
1
Step 164000
Ar 9.492019e-01 0.000000e+00 0.000000e+00
1
Step 165000
Ar 9.569913e-01 0.000000e+00 0.000000e+00
1
Step 166000
Ar 9.479127e-01 0.000000e+00 0.000000e+00
1
Step 167000
Ar 9.371386e-01 0.000000e+00 0.000000e+00
1
Step 168000
Ar 9.468152e-01 0.000000e+00 0.000000e+00
1
Step 169000
Ar 9.441409e-01 0.000000e+00 0.000000e+00
1
Step 170000
Ar 9.412346e-01 0.000000e+00 0.000000e+00
1
Step 171000
Ar 1.000090e+00 0.000000e+00 0.000000e+00
1
Step 172000
Ar 9.889572e-01 0.000000e+00 0.000000e+00
1
Step 173000
Ar 1.011446e+00 0.000000e+00 0.000000e+00
1
Step 174000
Ar 9.921004e-01 0.000000e+00 0.000000e+00
1
Step 175000
Ar 1.011307e+00 0.000000e+00 0.000000e+00
1
Step 176000
Ar 1.062577e+00 0.000000e+00 0.000000e+00
1
Step 177000
Ar 1.067348e+00 0.000000e+00 0.000000e+00
1
Step 178000
Ar 1.064422e+00 0.000000e+00 0.000000e+00
1
Step 179000
Ar 1.061191e+00 0.000000e+00 0.000000e+00
1
Step 180000
Ar 1.065497e+00 0.000000e+00 0.000000e+00
1
Step 181000
Ar 9.272339e-01 0.000000e+00 0.000000e+00
1
Step 182000
Ar 9.290173e-01 0.000000e+00 0.000000e+00
1
Step 183000
Ar 9.268392e-01 0.000000e+00 0.000000e+00
1
Step 184000
Ar 9.302145e-01 0.000000e+00 0.000000e+00
1
Step 185000
Ar 9.310416e-01 0.000000e+00 0.000000e+00
1
Step 186000
Ar 9.121153e-01 0.000000e+00 0.000000e+00
1
Step 187000
Ar 9.217393e-01 0.000000e+00 0.000000e+00
1
Step 188000
Ar 9.143609e-01 0.000000e+00 0.000000e+00
1
Step 189000
Ar 9.147226e-01 0.000000e+00 0.000000e+00
1
Step 190000
Ar 9.155486e-01 0.000000e+00 0.000000e+00
1
Step 191000
Ar 9.828531e-01 0.000000e+00 0.000000e+00
1
Step 192000
Ar 9.871348e-01 0.000000e+00 0.000000e+00
1
Step 193000
Ar 1.025739e+00 0.000000e+00 0.000000e+00
1
Step 194000
Ar 1.043364e+00 0.000000e+00 0.000000e+00
1
Step 195000
Ar 1.026504e+00 0.000000e+00 0.000000e+00
1
Step 196000
Ar 1.044192e+00 0.000000e+00 0.000000e+00
1
Step 197000
Ar 9.467209e-01 0.000000e+00 0.000000e+00
1
Step 198000
Ar 9.644819e-01 0.000000e+00 0.000000e+00
1
Step 199000
Ar 9.817361e-01 0.000000e+00 0.000000e+00
1
Step 200000
Ar 9.880036e-01 0.000000e+00 0.000000e+00
1
Step 201000
Ar 9.983550e-01 0.000000e+00 0.000000e+00
1
Step 202000
Ar 9.977944e-01 0.000000e+00 0.000000e+00
1
Step 203000
Ar 9.985187e-01 0.000000e+00 0.000000e+00
1
Step 204000
Ar 9.997515e-01 0.000000e+00 0.000000e+00
1
Step 205000
Ar 9.652088e-01 0.000000e+00 0.000000e+00
1
Step 206000
Ar 1.043878e+00 0.000000e+00 0.000000e+00
1
Step 207000
Ar 1.042159e+00 0.000000e+00 0.000000e+00
1
Step 208000
Ar 1.055029e+00 0.000000e+00 0.000000e+00
1
Step 209000
Ar 9.979777e-01 0.000000e+00 0.000000e+00
1
Step 210000
Ar 1.004260e+00 0.000000e+00 0.000000e+00
1
Step 211000
Ar 9.319972e-01 0.000000e+00 0.000000e+00
1
Step 212000
Ar 1.073965e+00 0.000000e+00 0.000000e+00
1
Step 213000
Ar 1.042078e+00 0.000000e+00 0.000000e+00
1
Step 214000
Ar 1.057031e+00 0.000000e+00 0.000000e+00
1
Step 215000
Ar 8.812532e-01 0.000000e+00 0.000000e+00
1
Step 216000
Ar 1.020983e+00 0.000000e+00 0.000000e+00
1
Step 217000
Ar 1.056829e+00 0.000000e+00 0.000000e+00
1
Step 218000
Ar 1.044186e+00 0.000000e+00 0.000000e+00
1
Step 219000
Ar 1.049247e+00 0.000000e+00 0.000000e+00
1
Step 220000
Ar 1.042987e+00 0.000000e+00 0.000000e+00
1
Step 221000
Ar 1.073464e+00 0.000000e+00 0.000000e+00
1
Step 222000
Ar 1.072508e+00 0.000000e+00 0.000000e+00
1
Step 223000
Ar 1.074645e+00 0.000000e+00 0.000000e+00
1
Step 224000
Ar 1.081036e+00 0.000000e+00 0.000000e+00
1
Step 225000
Ar 1.076585e+00 0.000000e+00 0.000000e+00
1
Step 226000
Ar 1.086373e+00 0.000000e+00 0.000000e+00
1
Step 227000
Ar 1.087964e+00 0.000000e+00 0.000000e+00
1
Step 228000
Ar 1.086019e+00 0.000000e+00 0.000000e+00
1
Step 229000
Ar 9.054742e-01 0.000000e+00 0.000000e+00
1
Step 230000
Ar 9.026992e-01 0.000000e+00 0.000000e+00
1
Step 231000
Ar 8.733256e-01 0.000000e+00 0.000000e+00
1
Step 232000
Ar 9.207491e-01 0.000000e+00 0.000000e+00
1
Step 233000
Ar 1.016177e+00 0.000000e+00 0.000000e+00
1
Step 234000
Ar 1.084618e+00 0.000000e+00 0.000000e+00
1
Step 235000
Ar 1.087802e+00 0.000000e+00 0.000000e+00
1
Step 236000
Ar 1.095476e+00 0.000000e+00 0.000000e+00
1
Step 237000
Ar 1.100175e+00 0.000000e+00 0.000000e+00
1
Step 238000
Ar 1.232874e+00 0.000000e+00 0.000000e+00
1
Step 239000
Ar 1.018014e+00 0.000000e+00 0.000000e+00
1
Step 240000
Ar 1.020690e+00 0.000000e+00 0.000000e+00
1
Step 241000
Ar 8.840124e-01 0.000000e+00 0.000000e+00
1
Step 242000
Ar 9.592337e-01 0.000000e+00 0.000000e+00
1
Step 243000
Ar 1.104935e+00 0.000000e+00 0.000000e+00
1
Step 244000
Ar 1.074083e+00 0.000000e+00 0.000000e+00
1
Step 245000
Ar 1.134058e+00 0.000000e+00 0.000000e+00
1
Step 246000
Ar 9.695707e-01 0.000000e+00 0.000000e+00
1
Step 247000
Ar 1.087398e+00 0.000000e+00 0.000000e+00
1
Step 248000
Ar 1.035482e+00 0.000000e+00 0.000000e+00
1
Step 249000
Ar 8.744110e-01 0.000000e+00 0.000000e+00
1
Step 250000
Ar 8.732196e-01 0.000000e+00 0.000000e+00
1
Step 251000
Ar 8.661483e-01 0.000000e+00 0.000000e+00
1
Step 252000
Ar 8.579312e-01 0.000000e+00 0.000000e+00
1
Step 253000
Ar 8.675070e-01 0.000000e+00 0.000000e+00
1
Step 254000
Ar 8.665965e-01 0.000000e+00 0.000000e+00
1
Step 255000
Ar 8.645670e-01 0.000000e+00 0.000000e+00
1
Step 256000
Ar 8.537389e-01 0.000000e+00 0.000000e+00
1
Step 257000
Ar 8.590012e-01 0.000000e+00 0.000000e+00
1
Step 258000
Ar 8.470312e-01 0.000000e+00 0.000000e+00
1
Step 259000
Ar 1.093506e+00 0.000000e+00 0.000000e+00
1
Step 260000
Ar 1.095873e+00 0.000000e+00 0.000000e+00
1
Step 261000
Ar 8.519488e-01 0.000000e+00 0.000000e+00
1
Step 262000
Ar 8.551014e-01 0.000000e+00 0.000000e+00
1
Step 263000
Ar 8.572215e-01 0.000000e+00 0.000000e+00
1
Step 264000
Ar 8.558174e-01 0.000000e+00 0.000000e+00
1
Step 265000
Ar 8.537056e-01 0.000000e+00 0.000000e+00
1
Step 266000
Ar 9.049293e-01 0.000000e+00 0.000000e+00
1
Step 267000
Ar 9.510022e-01 0.000000e+00 0.000000e+00
1
Step 268000
Ar 8.644108e-01 0.000000e+00 0.000000e+00
1
Step 269000
Ar 1.037818e+00 0.000000e+00 0.000000e+00
1
Step 270000
Ar 9.767560e-01 0.000000e+00 0.000000e+00
1
Step 271000
Ar 9.964589e-01 0.000000e+00 0.000000e+00
1
Step 272000
Ar 9.967296e-01 0.000000e+00 0.000000e+00
1
Step 273000
Ar 1.042334e+00 0.000000e+00 0.000000e+00
1
Step 274000
Ar 8.457003e-01 0.000000e+00 0.000000e+00
1
Step 275000
Ar 8.451797e-01 0.000000e+00 0.000000e+00
1
Step 276000
Ar 1.104795e+00 0.000000e+00 0.000000e+00
1
Step 277000
Ar 1.102791e+00 0.000000e+00 0.000000e+00
1
Step 278000
Ar 1.103863e+00 0.000000e+00 0.000000e+00
1
Step 279000
Ar 1.104272e+00 0.000000e+00 0.000000e+00
1
Step 280000
Ar 1.103772e+00 0.000000e+00 0.000000e+00
1
Step 281000
Ar 1.115056e+00 0.000000e+00 0.000000e+00
1
Step 282000
Ar 1.116822e+00 0.000000e+00 0.000000e+00
1
Step 283000
Ar 1.112699e+00 0.000000e+00 0.000000e+00
1
Step 284000
Ar 1.114482e+00 0.000000e+00 0.000000e+00
1
Step 285000
Ar 1.118203e+00 0.000000e+00 0.000000e+00
1
Step 286000
Ar 9.730587e-01 0.000000e+00 0.000000e+00
1
Step 287000
Ar 8.916713e-01 0.000000e+00 0.000000e+00
1
Step 288000
Ar 9.999447e-01 0.000000e+00 0.000000e+00
1
Step 289000
Ar 9.790666e-01 0.000000e+00 0.000000e+00
1
Step 290000
Ar 8.929885e-01 0.000000e+00 0.000000e+00
1
Step 291000
Ar 9.943035e-01 0.000000e+00 0.000000e+00
1
Step 292000
Ar 9.995859e-01 0.000000e+00 0.000000e+00
1
Step 293000
Ar 9.453261e-01 0.000000e+00 0.000000e+00
1
Step 294000
Ar 9.939347e-01 0.000000e+00 0.000000e+00
1
Step 295000
Ar 9.857891e-01 0.000000e+00 0.000000e+00
1
Step 296000
Ar 1.247353e+00 0.000000e+00 0.000000e+00
1
Step 297000
Ar 1.026823e+00 0.000000e+00 0.000000e+00
1
Step 298000
Ar 8.530806e-01 0.000000e+00 0.000000e+00
1
Step 299000
Ar 9.060709e-01 0.000000e+00 0.000000e+00
1
Step 300000
Ar 8.361533e-01 0.000000e+00 0.000000e+00
1
Step 301000
Ar 8.501028e-01 0.000000e+00 0.000000e+00
1
Step 302000
Ar 9.485202e-01 0.000000e+00 0.000000e+00
1
Step 303000
Ar 1.070644e+00 0.000000e+00 0.000000e+00
1
Step 304000
Ar 9.665640e-01 0.000000e+00 0.000000e+00
1
Step 305000
Ar 8.768169e-01 0.000000e+00 0.000000e+00
1
Step 306000
Ar 9.727421e-01 0.000000e+00 0.000000e+00
1
Step 307000
Ar 1.062720e+00 0.000000e+00 0.000000e+00
1
Step 308000
Ar 1.049288e+00 0.000000e+00 0.000000e+00
1
Step 309000
Ar 8.678129e-01 0.000000e+00 0.000000e+00
1
Step 310000
Ar 8.631433e-01 0.000000e+00 0.000000e+00
1
Step 311000
Ar 1.174706e+00 0.000000e+00 0.000000e+00
1
Step 312000
Ar 9.373540e-01 0.000000e+00 0.000000e+00
1
Step 313000
Ar 1.021211e+00 0.000000e+00 0.000000e+00
1
Step 314000
Ar 9.426931e-01 0.000000e+00 0.000000e+00
1
Step 315000
Ar 9.427732e-01 0.000000e+00 0.000000e+00
1
Step 316000
Ar 1.141078e+00 0.000000e+00 0.000000e+00
1
Step 317000
Ar 9.290188e-01 0.000000e+00 0.000000e+00
1
Step 318000
Ar 8.580800e-01 0.000000e+00 0.000000e+00
1
Step 319000
Ar 1.212324e+00 0.000000e+00 0.000000e+00
1
Step 320000
Ar 9.134058e-01 0.000000e+00 0.000000e+00
1
Step 321000
Ar 9.270622e-01 0.000000e+00 0.000000e+00
1
Step 322000
Ar 9.053585e-01 0.000000e+00 0.000000e+00
1
Step 323000
Ar 9.372588e-01 0.000000e+00 0.000000e+00
1
Step 324000
Ar 8.309582e-01 0.000000e+00 0.000000e+00
1
Step 325000
Ar 8.251391e-01 0.000000e+00 0.000000e+00
1
Step 326000
Ar 9.197981e-01 0.000000e+00 0.000000e+00
1
Step 327000
Ar 9.545183e-01 0.000000e+00 0.000000e+00
1
Step 328000
Ar 1.044954e+00 0.000000e+00 0.000000e+00
1
Step 329000
Ar 1.057543e+00 0.000000e+00 0.000000e+00
1
Step 330000
Ar 9.191517e-01 0.000000e+00 0.000000e+00
1
Step 331000
Ar 9.050119e-01 0.000000e+00 0.000000e+00
1
Step 332000
Ar 9.080716e-01 0.000000e+00 0.000000e+00
1
Step 333000
Ar 1.109246e+00 0.000000e+00 0.000000e+00
1
Step 334000
Ar 1.010430e+00 0.000000e+00 0.000000e+00
1
Step 335000
Ar 9.717461e-01 0.000000e+00 0.000000e+00
1
Step 336000
Ar 1.146131e+00 0.000000e+00 0.000000e+00
1
Step 337000
Ar 1.025924e+00 0.000000e+00 0.000000e+00
1
Step 338000
Ar 1.079188e+00 0.000000e+00 0.000000e+00
1
Step 339000
Ar 1.009022e+00 0.000000e+00 0.000000e+00
1
Step 340000
Ar 9.584191e-01 0.000000e+00 0.000000e+00
1
Step 341000
Ar 9.926139e-01 0.000000e+00 0.000000e+00
1
Step 342000
Ar 6.180760e-01 0.000000e+00 0.000000e+00
1
Step 343000
Ar 9.042419e-01 0.000000e+00 0.000000e+00
1
Step 344000
Ar 9.064914e-01 0.000000e+00 0.000000e+00
1
Step 345000
Ar 9.065720e-01 0.000000e+00 0.000000e+00
1
Step 346000
Ar 8.992699e-01 0.000000e+00 0.000000e+00
1
Step 347000
Ar 9.286238e-01 0.000000e+00 0.000000e+00
1
Step 348000
Ar 1.206458e+00 0.000000e+00 0.000000e+00
1
Step 349000
Ar 8.851969e-01 0.000000e+00 0.000000e+00
1
Step 350000
Ar 1.032106e+00 0.000000e+00 0.000000e+00
1
Step 351000
Ar 1.194332e+00 0.000000e+00 0.000000e+00
1
Step 352000
Ar 8.576689e-01 0.000000e+00 0.000000e+00
1
Step 353000
Ar 1.012746e+00 0.000000e+00 0.000000e+00
1
Step 354000
Ar 8.658017e-01 0.000000e+00 0.000000e+00
1
Step 355000
Ar 8.190766e-01 0.000000e+00 0.000000e+00
1
Step 356000
Ar 8.962382e-01 0.000000e+00 0.000000e+00
1
Step 357000
Ar 8.939616e-01 0.000000e+00 0.000000e+00
1
Step 358000
Ar 8.924340e-01 0.000000e+00 0.000000e+00
1
Step 359000
Ar 8.893379e-01 0.000000e+00 0.000000e+00
1
Step 360000
Ar 8.964532e-01 0.000000e+00 0.000000e+00
1
Step 361000
Ar 1.124876e+00 0.000000e+00 0.000000e+00
1
Step 362000
Ar 8.124434e-01 0.000000e+00 0.000000e+00
1
Step 363000
Ar 8.054558e-01 0.000000e+00 0.000000e+00
1
Step 364000
Ar 8.113369e-01 0.000000e+00 0.000000e+00
1
Step 365000
Ar 8.120193e-01 0.000000e+00 0.000000e+00
1
Step 366000
Ar 1.018627e+00 0.000000e+00 0.000000e+00
1
Step 367000
Ar 8.003674e-01 0.000000e+00 0.000000e+00
1
Step 368000
Ar 8.033953e-01 0.000000e+00 0.000000e+00
1
Step 369000
Ar 8.027663e-01 0.000000e+00 0.000000e+00
1
Step 370000
Ar 8.024103e-01 0.000000e+00 0.000000e+00
1
Step 371000
Ar 9.433864e-01 0.000000e+00 0.000000e+00
1
Step 372000
Ar 1.080901e+00 0.000000e+00 0.000000e+00
1
Step 373000
Ar 9.504376e-01 0.000000e+00 0.000000e+00
1
Step 374000
Ar 9.293468e-01 0.000000e+00 0.000000e+00
1
Step 375000
Ar 1.044257e+00 0.000000e+00 0.000000e+00
1
Step 376000
Ar 9.558949e-01 0.000000e+00 0.000000e+00
1
Step 377000
Ar 7.621716e-01 0.000000e+00 0.000000e+00
1
Step 378000
Ar 8.665428e-01 0.000000e+00 0.000000e+00
1
Step 379000
Ar 1.047573e+00 0.000000e+00 0.000000e+00
1
Step 380000
Ar 1.013955e+00 0.000000e+00 0.000000e+00
1
Step 381000
Ar 1.207339e+00 0.000000e+00 0.000000e+00
1
Step 382000
Ar 1.052498e+00 0.000000e+00 0.000000e+00
1
Step 383000
Ar 1.090249e+00 0.000000e+00 0.000000e+00
1
Step 384000
Ar 8.170029e-01 0.000000e+00 0.000000e+00
1
Step 385000
Ar 8.550339e-01 0.000000e+00 0.000000e+00
1
Step 386000
Ar 8.459161e-01 0.000000e+00 0.000000e+00
1
Step 387000
Ar 8.461189e-01 0.000000e+00 0.000000e+00
1
Step 388000
Ar 8.451126e-01 0.000000e+00 0.000000e+00
1
Step 389000
Ar 8.482157e-01 0.000000e+00 0.000000e+00
1
Step 390000
Ar 8.386578e-01 0.000000e+00 0.000000e+00
1
Step 391000
Ar 8.618236e-01 0.000000e+00 0.000000e+00
1
Step 392000
Ar 1.150117e+00 0.000000e+00 0.000000e+00
1
Step 393000
Ar 1.040810e+00 0.000000e+00 0.000000e+00
1
Step 394000
Ar 1.075104e+00 0.000000e+00 0.000000e+00
1
Step 395000
Ar 1.054358e+00 0.000000e+00 0.000000e+00
1
Step 396000
Ar 9.323207e-01 0.000000e+00 0.000000e+00
1
Step 397000
Ar 9.911739e-01 0.000000e+00 0.000000e+00
1
Step 398000
Ar 6.676349e-01 0.000000e+00 0.000000e+00
1
Step 399000
Ar 1.056216e+00 0.000000e+00 0.000000e+00
1
Step 400000
Ar 8.854660e-01 0.000000e+00 0.000000e+00
1
Step 401000
Ar 9.563346e-01 0.000000e+00 0.000000e+00
1
Step 402000
Ar 1.063132e+00 0.000000e+00 0.000000e+00
1
Step 403000
Ar 1.207279e+00 0.000000e+00 0.000000e+00
1
Step 404000
Ar 1.040921e+00 0.000000e+00 0.000000e+00
1
Step 405000
Ar 8.891336e-01 0.000000e+00 0.000000e+00
1
Step 406000
Ar 7.897842e-01 0.000000e+00 0.000000e+00
1
Step 407000
Ar 1.037462e+00 0.000000e+00 0.000000e+00
1
Step 408000
Ar 1.236514e+00 0.000000e+00 0.000000e+00
1
Step 409000
Ar 8.656931e-01 0.000000e+00 0.000000e+00
1
Step 410000
Ar 1.176157e+00 0.000000e+00 0.000000e+00
1
Step 411000
Ar 9.624542e-01 0.000000e+00 0.000000e+00
1
Step 412000
Ar 1.059546e+00 0.000000e+00 0.000000e+00
1
Step 413000
Ar 1.062322e+00 0.000000e+00 0.000000e+00
1
Step 414000
Ar 9.143802e-01 0.000000e+00 0.000000e+00
1
Step 415000
Ar 9.501129e-01 0.000000e+00 0.000000e+00
1
Step 416000
Ar 1.027913e+00 0.000000e+00 0.000000e+00
1
Step 417000
Ar 1.054554e+00 0.000000e+00 0.000000e+00
1
Step 418000
Ar 9.485736e-01 0.000000e+00 0.000000e+00
1
Step 419000
Ar 8.656742e-01 0.000000e+00 0.000000e+00
1
Step 420000
Ar 1.030932e+00 0.000000e+00 0.000000e+00
1
Step 421000
Ar 1.063344e+00 0.000000e+00 0.000000e+00
1
Step 422000
Ar 1.063749e+00 0.000000e+00 0.000000e+00
1
Step 423000
Ar 9.242715e-01 0.000000e+00 0.000000e+00
1
Step 424000
Ar 1.058815e+00 0.000000e+00 0.000000e+00
1
Step 425000
Ar 1.058583e+00 0.000000e+00 0.000000e+00
1
Step 426000
Ar 1.077162e+00 0.000000e+00 0.000000e+00
1
Step 427000
Ar 1.067076e+00 0.000000e+00 0.000000e+00
1
Step 428000
Ar 1.077501e+00 0.000000e+00 0.000000e+00
1
Step 429000
Ar 1.071094e+00 0.000000e+00 0.000000e+00
1
Step 430000
Ar 1.070797e+00 0.000000e+00 0.000000e+00
1
Step 431000
Ar 1.059186e+00 0.000000e+00 0.000000e+00
1
Step 432000
Ar 1.058066e+00 0.000000e+00 0.000000e+00
1
Step 433000
Ar 1.082363e+00 0.000000e+00 0.000000e+00
1
Step 434000
Ar 1.059988e+00 0.000000e+00 0.000000e+00
1
Step 435000
Ar 1.059881e+00 0.000000e+00 0.000000e+00
1
Step 436000
Ar 9.300084e-01 0.000000e+00 0.000000e+00
1
Step 437000
Ar 1.054004e+00 0.000000e+00 0.000000e+00
1
Step 438000
Ar 9.453962e-01 0.000000e+00 0.000000e+00
1
Step 439000
Ar 9.567086e-01 0.000000e+00 0.000000e+00
1
Step 440000
Ar 9.174331e-01 0.000000e+00 0.000000e+00
1
Step 441000
Ar 7.747057e-01 0.000000e+00 0.000000e+00
1
Step 442000
Ar 1.079350e+00 0.000000e+00 0.000000e+00
1
Step 443000
Ar 1.083145e+00 0.000000e+00 0.000000e+00
1
Step 444000
Ar 1.080722e+00 0.000000e+00 0.000000e+00
1
Step 445000
Ar 8.698666e-01 0.000000e+00 0.000000e+00
1
Step 446000
Ar 9.216991e-01 0.000000e+00 0.000000e+00
1
Step 447000
Ar 7.367982e-01 0.000000e+00 0.000000e+00
1
Step 448000
Ar 9.310035e-01 0.000000e+00 0.000000e+00
1
Step 449000
Ar 9.030161e-01 0.000000e+00 0.000000e+00
1
Step 450000
Ar 9.029375e-01 0.000000e+00 0.000000e+00
1
Step 451000
Ar 9.931528e-01 0.000000e+00 0.000000e+00
1
Step 452000
Ar 1.163235e+00 0.000000e+00 0.000000e+00
1
Step 453000
Ar 8.206443e-01 0.000000e+00 0.000000e+00
1
Step 454000
Ar 7.832818e-01 0.000000e+00 0.000000e+00
1
Step 455000
Ar 9.367429e-01 0.000000e+00 0.000000e+00
1
Step 456000
Ar 1.082891e+00 0.000000e+00 0.000000e+00
1
Step 457000
Ar 1.075650e+00 0.000000e+00 0.000000e+00
1
Step 458000
Ar 1.078669e+00 0.000000e+00 0.000000e+00
1
Step 459000
Ar 8.662242e-01 0.000000e+00 0.000000e+00
1
Step 460000
Ar 1.057578e+00 0.000000e+00 0.000000e+00
1
Step 461000
Ar 1.096650e+00 0.000000e+00 0.000000e+00
1
Step 462000
Ar 1.226835e+00 0.000000e+00 0.000000e+00
1
Step 463000
Ar 1.082564e+00 0.000000e+00 0.000000e+00
1
Step 464000
Ar 1.084503e+00 0.000000e+00 0.000000e+00
1
Step 465000
Ar 1.080458e+00 0.000000e+00 0.000000e+00
1
Step 466000
Ar 1.065762e+00 0.000000e+00 0.000000e+00
1
Step 467000
Ar 1.072512e+00 0.000000e+00 0.000000e+00
1
Step 468000
Ar 1.074229e+00 0.000000e+00 0.000000e+00
1
Step 469000
Ar 1.067010e+00 0.000000e+00 0.000000e+00
1
Step 470000
Ar 8.718841e-01 0.000000e+00 0.000000e+00
1
Step 471000
Ar 9.654166e-01 0.000000e+00 0.000000e+00
1
Step 472000
Ar 1.095381e+00 0.000000e+00 0.000000e+00
1
Step 473000
Ar 9.492703e-01 0.000000e+00 0.000000e+00
1
Step 474000
Ar 1.016782e+00 0.000000e+00 0.000000e+00
1
Step 475000
Ar 9.313210e-01 0.000000e+00 0.000000e+00
1
Step 476000
Ar 1.084826e+00 0.000000e+00 0.000000e+00
1
Step 477000
Ar 1.070004e+00 0.000000e+00 0.000000e+00
1
Step 478000
Ar 1.085517e+00 0.000000e+00 0.000000e+00
1
Step 479000
Ar 1.069690e+00 0.000000e+00 0.000000e+00
1
Step 480000
Ar 1.090934e+00 0.000000e+00 0.000000e+00
1
Step 481000
Ar 9.049999e-01 0.000000e+00 0.000000e+00
1
Step 482000
Ar 1.015746e+00 0.000000e+00 0.000000e+00
1
Step 483000
Ar 1.069613e+00 0.000000e+00 0.000000e+00
1
Step 484000
Ar 1.073538e+00 0.000000e+00 0.000000e+00
1
Step 485000
Ar 1.074140e+00 0.000000e+00 0.000000e+00
1
Step 486000
Ar 8.045080e-01 0.000000e+00 0.000000e+00
1
Step 487000
Ar 8.700436e-01 0.000000e+00 0.000000e+00
1
Step 488000
Ar 8.961924e-01 0.000000e+00 0.000000e+00
1
Step 489000
Ar 8.387141e-01 0.000000e+00 0.000000e+00
1
Step 490000
Ar 1.054016e+00 0.000000e+00 0.000000e+00
1
Step 491000
Ar 7.396601e-01 0.000000e+00 0.000000e+00
1
Step 492000
Ar 1.243488e+00 0.000000e+00 0.000000e+00
1
Step 493000
Ar 8.596020e-01 0.000000e+00 0.000000e+00
1
Step 494000
Ar 8.592962e-01 0.000000e+00 0.000000e+00
1
Step 495000
Ar 8.491821e-01 0.000000e+00 0.000000e+00
1
Step 496000
Ar 1.109542e+00 0.000000e+00 0.000000e+00
1
Step 497000
Ar 1.107292e+00 0.000000e+00 0.000000e+00
1
Step 498000
Ar 1.106870e+00 0.000000e+00 0.000000e+00
1
Step 499000
Ar 9.243837e-01 0.000000e+00 0.000000e+00
1
Step 500000
Ar 9.708351e-01 0.000000e+00 0.000000e+00
1
Step 501000
Ar 7.926523e-01 0.000000e+00 0.000000e+00
1
Step 502000
Ar 7.953744e-01 0.000000e+00 0.000000e+00
1
Step 503000
Ar 9.536006e-01 0.000000e+00 0.000000e+00
1
Step 504000
Ar 1.016944e+00 0.000000e+00 0.000000e+00
1
Step 505000
Ar 8.574376e-01 0.000000e+00 0.000000e+00
1
Step 506000
Ar 8.468566e-01 0.000000e+00 0.000000e+00
1
Step 507000
Ar 1.247738e+00 0.000000e+00 0.000000e+00
1
Step 508000
Ar 7.724806e-01 0.000000e+00 0.000000e+00
1
Step 509000
Ar 9.837736e-01 0.000000e+00 0.000000e+00
1
Step 510000
Ar 1.117527e+00 0.000000e+00 0.000000e+00
1
Step 511000
Ar 1.191577e+00 0.000000e+00 0.000000e+00
1
Step 512000
Ar 9.483831e-01 0.000000e+00 0.000000e+00
1
Step 513000
Ar 8.435253e-01 0.000000e+00 0.000000e+00
1
Step 514000
Ar 9.122287e-01 0.000000e+00 0.000000e+00
1
Step 515000
Ar 1.163877e+00 0.000000e+00 0.000000e+00
1
Step 516000
Ar 1.217818e+00 0.000000e+00 0.000000e+00
1
Step 517000
Ar 9.505528e-01 0.000000e+00 0.000000e+00
1
Step 518000
Ar 9.516852e-01 0.000000e+00 0.000000e+00
1
Step 519000
Ar 7.496596e-01 0.000000e+00 0.000000e+00
1
Step 520000
Ar 1.035232e+00 0.000000e+00 0.000000e+00
1
Step 521000
Ar 1.007809e+00 0.000000e+00 0.000000e+00
1
Step 522000
Ar 7.962487e-01 0.000000e+00 0.000000e+00
1
Step 523000
Ar 8.555293e-01 0.000000e+00 0.000000e+00
1
Step 524000
Ar 1.070429e+00 0.000000e+00 0.000000e+00
1
Step 525000
Ar 1.026263e+00 0.000000e+00 0.000000e+00
1
Step 526000
Ar 1.062416e+00 0.000000e+00 0.000000e+00
1
Step 527000
Ar 1.104453e+00 0.000000e+00 0.000000e+00
1
Step 528000
Ar 1.074153e+00 0.000000e+00 0.000000e+00
1
Step 529000
Ar 8.249262e-01 0.000000e+00 0.000000e+00
1
Step 530000
Ar 4.244275e-01 0.000000e+00 0.000000e+00
1
Step 531000
Ar 9.495345e-01 0.000000e+00 0.000000e+00
1
Step 532000
Ar 8.251138e-01 0.000000e+00 0.000000e+00
1
Step 533000
Ar 1.199089e+00 0.000000e+00 0.000000e+00
1
Step 534000
Ar 9.566523e-01 0.000000e+00 0.000000e+00
1
Step 535000
Ar 8.041127e-01 0.000000e+00 0.000000e+00
1
Step 536000
Ar 9.569603e-01 0.000000e+00 0.000000e+00
1
Step 537000
Ar 7.612833e-01 0.000000e+00 0.000000e+00
1
Step 538000
Ar 1.210141e+00 0.000000e+00 0.000000e+00
1
Step 539000
Ar 1.129103e+00 0.000000e+00 0.000000e+00
1
Step 540000
Ar 1.122908e+00 0.000000e+00 0.000000e+00
1
Step 541000
Ar 7.120613e-01 0.000000e+00 0.000000e+00
1
Step 542000
Ar 5.248604e-01 0.000000e+00 0.000000e+00
1
Step 543000
Ar 1.164650e+00 0.000000e+00 0.000000e+00
1
Step 544000
Ar 1.033370e+00 0.000000e+00 0.000000e+00
1
Step 545000
Ar 9.123402e-01 0.000000e+00 0.000000e+00
1
Step 546000
Ar 1.038657e+00 0.000000e+00 0.000000e+00
1
Step 547000
Ar 1.041007e+00 0.000000e+00 0.000000e+00
1
Step 548000
Ar 1.107148e+00 0.000000e+00 0.000000e+00
1
Step 549000
Ar 1.208367e+00 0.000000e+00 0.000000e+00
1
Step 550000
Ar 1.224426e+00 0.000000e+00 0.000000e+00
1
Step 551000
Ar 9.115420e-01 0.000000e+00 0.000000e+00
1
Step 552000
Ar 7.678824e-01 0.000000e+00 0.000000e+00
1
Step 553000
Ar 8.903941e-01 0.000000e+00 0.000000e+00
1
Step 554000
Ar 9.905131e-01 0.000000e+00 0.000000e+00
1
Step 555000
Ar 7.491198e-01 0.000000e+00 0.000000e+00
1
Step 556000
Ar 9.426958e-01 0.000000e+00 0.000000e+00
1
Step 557000
Ar 9.533860e-01 0.000000e+00 0.000000e+00
1
Step 558000
Ar 7.409265e-01 0.000000e+00 0.000000e+00
1
Step 559000
Ar 8.959193e-01 0.000000e+00 0.000000e+00
1
Step 560000
Ar 1.196093e+00 0.000000e+00 0.000000e+00
1
Step 561000
Ar 1.141209e+00 0.000000e+00 0.000000e+00
1
Step 562000
Ar 8.365843e-01 0.000000e+00 0.000000e+00
1
Step 563000
Ar 6.499602e-01 0.000000e+00 0.000000e+00
1
Step 564000
Ar 8.492988e-01 0.000000e+00 0.000000e+00
1
Step 565000
Ar 9.727703e-01 0.000000e+00 0.000000e+00
1
Step 566000
Ar 8.288938e-01 0.000000e+00 0.000000e+00
1
Step 567000
Ar 1.136388e+00 0.000000e+00 0.000000e+00
1
Step 568000
Ar 1.173939e+00 0.000000e+00 0.000000e+00
1
Step 569000
Ar 1.222405e+00 0.000000e+00 0.000000e+00
1
Step 570000
Ar 9.067364e-01 0.000000e+00 0.000000e+00
1
Step 571000
Ar 4.859394e-01 0.000000e+00 0.000000e+00
1
Step 572000
Ar 6.515447e-01 0.000000e+00 0.000000e+00
1
Step 573000
Ar 1.039654e+00 0.000000e+00 0.000000e+00
1
Step 574000
Ar 1.039517e+00 0.000000e+00 0.000000e+00
1
Step 575000
Ar 1.046260e+00 0.000000e+00 0.000000e+00
1
Step 576000
Ar 7.852487e-01 0.000000e+00 0.000000e+00
1
Step 577000
Ar 8.708153e-01 0.000000e+00 0.000000e+00
1
Step 578000
Ar 9.116899e-01 0.000000e+00 0.000000e+00
1
Step 579000
Ar 8.783809e-01 0.000000e+00 0.000000e+00
1
Step 580000
Ar 9.350928e-01 0.000000e+00 0.000000e+00
1
Step 581000
Ar 9.193388e-01 0.000000e+00 0.000000e+00
1
Step 582000
Ar 9.681002e-01 0.000000e+00 0.000000e+00
1
Step 583000
Ar 5.546430e-01 0.000000e+00 0.000000e+00
1
Step 584000
Ar 9.835475e-01 0.000000e+00 0.000000e+00
1
Step 585000
Ar 9.536419e-01 0.000000e+00 0.000000e+00
1
Step 586000
Ar 8.945466e-01 0.000000e+00 0.000000e+00
1
Step 587000
Ar 7.728630e-01 0.000000e+00 0.000000e+00
1
Step 588000
Ar 1.020689e+00 0.000000e+00 0.000000e+00
1
Step 589000
Ar -9.839348e-01 0.000000e+00 0.000000e+00
1
Step 590000
Ar -9.784650e-01 0.000000e+00 0.000000e+00
1
Step 591000
Ar -9.953781e-01 0.000000e+00 0.000000e+00
1
Step 592000
Ar -1.010377e+00 0.000000e+00 0.000000e+00
1
Step 593000
Ar -1.007427e+00 0.000000e+00 0.000000e+00
1
Step 594000
Ar -1.001022e+00 0.000000e+00 0.000000e+00
1
Step 595000
Ar -1.017762e+00 0.000000e+00 0.000000e+00
1
Step 596000
Ar -1.031472e+00 0.000000e+00 0.000000e+00
1
Step 597000
Ar -1.027767e+00 0.000000e+00 0.000000e+00
1
Step 598000
Ar -1.034806e+00 0.000000e+00 0.000000e+00
1
Step 599000
Ar -1.034994e+00 0.000000e+00 0.000000e+00
1
Step 600000
Ar -1.030731e+00 0.000000e+00 0.000000e+00
1
Step 601000
Ar -9.557736e-01 0.000000e+00 0.000000e+00
1
Step 602000
Ar -9.584459e-01 0.000000e+00 0.000000e+00
1
Step 603000
Ar -9.666122e-01 0.000000e+00 0.000000e+00
1
Step 604000
Ar -9.625301e-01 0.000000e+00 0.000000e+00
1
Step 605000
Ar -9.674122e-01 0.000000e+00 0.000000e+00
1
Step 606000
Ar -9.540589e-01 0.000000e+00 0.000000e+00
1
Step 607000
Ar -9.505587e-01 0.000000e+00 0.000000e+00
1
Step 608000
Ar -9.506935e-01 0.000000e+00 0.000000e+00
1
Step 609000
Ar -9.524117e-01 0.000000e+00 0.000000e+00
1
Step 610000
Ar -9.520673e-01 0.000000e+00 0.000000e+00
1
Step 611000
Ar -1.002914e+00 0.000000e+00 0.000000e+00
1
Step 612000
Ar -1.003450e+00 0.000000e+00 0.000000e+00
1
Step 613000
Ar -1.004957e+00 0.000000e+00 0.000000e+00
1
Step 614000
Ar -9.975210e-01 0.000000e+00 0.000000e+00
1
Step 615000
Ar -9.968997e-01 0.000000e+00 0.000000e+00
1
Step 616000
Ar -1.098121e+00 0.000000e+00 0.000000e+00
1
Step 617000
Ar -1.047284e+00 0.000000e+00 0.000000e+00
1
Step 618000
Ar -1.039322e+00 0.000000e+00 0.000000e+00
1
Step 619000
Ar -1.045587e+00 0.000000e+00 0.000000e+00
1
Step 620000
Ar -1.041772e+00 0.000000e+00 0.000000e+00
1
Step 621000
Ar -9.334620e-01 0.000000e+00 0.000000e+00
1
Step 622000
Ar -9.418190e-01 0.000000e+00 0.000000e+00
1
Step 623000
Ar -9.388584e-01 0.000000e+00 0.000000e+00
1
Step 624000
Ar -9.367492e-01 0.000000e+00 0.000000e+00
1
Step 625000
Ar -9.380895e-01 0.000000e+00 0.000000e+00
1
Step 626000
Ar -1.058559e+00 0.000000e+00 0.000000e+00
1
Step 627000
Ar -1.055209e+00 0.000000e+00 0.000000e+00
1
Step 628000
Ar -1.054484e+00 0.000000e+00 0.000000e+00
1
Step 629000
Ar -1.050888e+00 0.000000e+00 0.000000e+00
1
Step 630000
Ar -1.053328e+00 0.000000e+00 0.000000e+00
1
Step 631000
Ar -1.062860e+00 0.000000e+00 0.000000e+00
1
Step 632000
Ar -1.068107e+00 0.000000e+00 0.000000e+00
1
Step 633000
Ar -1.066279e+00 0.000000e+00 0.000000e+00
1
Step 634000
Ar -1.062881e+00 0.000000e+00 0.000000e+00
1
Step 635000
Ar -9.496019e-01 0.000000e+00 0.000000e+00
1
Step 636000
Ar -9.317218e-01 0.000000e+00 0.000000e+00
1
Step 637000
Ar -9.261849e-01 0.000000e+00 0.000000e+00
1
Step 638000
Ar -9.288355e-01 0.000000e+00 0.000000e+00
1
Step 639000
Ar -9.270877e-01 0.000000e+00 0.000000e+00
1
Step 640000
Ar -9.252180e-01 0.000000e+00 0.000000e+00
1
Step 641000
Ar -9.155488e-01 0.000000e+00 0.000000e+00
1
Step 642000
Ar -9.161589e-01 0.000000e+00 0.000000e+00
1
Step 643000
Ar -9.145036e-01 0.000000e+00 0.000000e+00
1
Step 644000
Ar -9.173131e-01 0.000000e+00 0.000000e+00
1
Step 645000
Ar -9.147800e-01 0.000000e+00 0.000000e+00
1
Step 646000
Ar -1.005253e+00 0.000000e+00 0.000000e+00
1
Step 647000
Ar -1.066465e+00 0.000000e+00 0.000000e+00
1
Step 648000
Ar -1.066171e+00 0.000000e+00 0.000000e+00
1
Step 649000
Ar -1.068504e+00 0.000000e+00 0.000000e+00
1
Step 650000
Ar -1.065922e+00 0.000000e+00 0.000000e+00
1
Step 651000
Ar -1.004542e+00 0.000000e+00 0.000000e+00
1
Step 652000
Ar -1.010156e+00 0.000000e+00 0.000000e+00
1
Step 653000
Ar -1.008315e+00 0.000000e+00 0.000000e+00
1
Step 654000