1
Step 120000
Ar 9.244971e-01 0.000000e+00 0.000000e+00
1
Step 121000
Ar 9.937637e-01 0.000000e+00 0.000000e+00
1
Step 122000
Ar 7.301697e-01 0.000000e+00 0.000000e+00
1
Step 123000
Ar 1.009613e+00 0.000000e+00 0.000000e+00
1
Step 124000
Ar 9.713941e-01 0.000000e+00 0.000000e+00
1
Step 125000
Ar 1.186672e+00 0.000000e+00 0.000000e+00
1
Step 126000
Ar 1.206683e+00 0.000000e+00 0.000000e+00
1
Step 127000
Ar 1.205196e+00 0.000000e+00 0.000000e+00
1
Step 128000
Ar 1.286712e+00 0.000000e+00 0.000000e+00
1
Step 129000
Ar 1.302532e+00 0.000000e+00 0.000000e+00
1
Step 130000
Ar 1.208245e+00 0.000000e+00 0.000000e+00
1
Step 131000
Ar 1.240373e+00 0.000000e+00 0.000000e+00
1
Step 132000
Ar 1.248757e+00 0.000000e+00 0.000000e+00
1
Step 133000
Ar 1.315119e+00 0.000000e+00 0.000000e+00
1
Step 134000
Ar 1.257830e+00 0.000000e+00 0.000000e+00
1
Step 135000
Ar 1.256357e+00 0.000000e+00 0.000000e+00
1
Step 136000
Ar 1.273941e+00 0.000000e+00 0.000000e+00
1
Step 137000
Ar 1.321944e+00 0.000000e+00 0.000000e+00
1
Step 138000
Ar 1.289862e+00 0.000000e+00 0.000000e+00
1
Step 139000
Ar 1.292267e+00 0.000000e+00 0.000000e+00
1
Step 140000
Ar 1.286877e+00 0.000000e+00 0.000000e+00
1
Step 141000
Ar 1.305491e+00 0.000000e+00 0.000000e+00
1
Step 142000
Ar 1.311628e+00 0.000000e+00 0.000000e+00
1
Step 143000
Ar 1.338706e+00 0.000000e+00 0.000000e+00
1
Step 144000
Ar 1.296568e+00 0.000000e+00 0.000000e+00
1
Step 145000
Ar 1.304568e+00 0.000000e+00 0.000000e+00
1
Step 146000
Ar 8.836628e-01 0.000000e+00 0.000000e+00
1
Step 147000
Ar 1.011962e+00 0.000000e+00 0.000000e+00
1
Step 148000
Ar 1.115455e+00 0.000000e+00 0.000000e+00
1
Step 149000
Ar 9.649385e-01 0.000000e+00 0.000000e+00
1
Step 150000
Ar 9.338654e-01 0.000000e+00 0.000000e+00
1
Step 151000
Ar 9.062828e-01 0.000000e+00 0.000000e+00
1
Step 152000
Ar 8.052901e-01 0.000000e+00 0.000000e+00
1
Step 153000
Ar 8.165453e-01 0.000000e+00 0.000000e+00
1
Step 154000
Ar 9.221275e-01 0.000000e+00 0.000000e+00
1
Step 155000
Ar 8.897324e-01 0.000000e+00 0.000000e+00
1
Step 156000
Ar 7.540725e-01 0.000000e+00 0.000000e+00
1
Step 157000
Ar 7.677800e-01 0.000000e+00 0.000000e+00
1
Step 158000
Ar 8.460281e-01 0.000000e+00 0.000000e+00
1
Step 159000
Ar 8.287486e-01 0.000000e+00 0.000000e+00
1
Step 160000
Ar 8.720615e-01 0.000000e+00 0.000000e+00
1
Step 161000
Ar 9.189995e-01 0.000000e+00 0.000000e+00
1
Step 162000
Ar 9.196218e-01 0.000000e+00 0.000000e+00
1
Step 163000
Ar 9.061053e-01 0.000000e+00 0.000000e+00
1
Step 164000
Ar 9.150139e-01 0.000000e+00 0.000000e+00
1
Step 165000
Ar 9.137894e-01 0.000000e+00 0.000000e+00
1
Step 166000
Ar 9.022747e-01 0.000000e+00 0.000000e+00
1
Step 167000
Ar 9.026971e-01 0.000000e+00 0.000000e+00
1
Step 168000
Ar 9.009253e-01 0.000000e+00 0.000000e+00
1
Step 169000
Ar 9.014907e-01 0.000000e+00 0.000000e+00
1
Step 170000
Ar 9.040562e-01 0.000000e+00 0.000000e+00
1
Step 171000
Ar 7.575556e-01 0.000000e+00 0.000000e+00
1
Step 172000
Ar 7.673607e-01 0.000000e+00 0.000000e+00
1
Step 173000
Ar 8.106850e-01 0.000000e+00 0.000000e+00
1
Step 174000
Ar 6.157822e-01 0.000000e+00 0.000000e+00
1
Step 175000
Ar 8.252195e-01 0.000000e+00 0.000000e+00
1
Step 176000
Ar 7.973064e-01 0.000000e+00 0.000000e+00
1
Step 177000
Ar 6.006357e-01 0.000000e+00 0.000000e+00
1
Step 178000
Ar 7.799493e-01 0.000000e+00 0.000000e+00
1
Step 179000
Ar 8.101520e-01 0.000000e+00 0.000000e+00
1
Step 180000
Ar 7.183199e-01 0.000000e+00 0.000000e+00
1
Step 181000
Ar 7.981193e-01 0.000000e+00 0.000000e+00
1
Step 182000
Ar 7.810263e-01 0.000000e+00 0.000000e+00
1
Step 183000
Ar 7.418452e-01 0.000000e+00 0.000000e+00
1
Step 184000
Ar 7.497992e-01 0.000000e+00 0.000000e+00
1
Step 185000
Ar 8.052429e-01 0.000000e+00 0.000000e+00
1
Step 186000
Ar 7.361306e-01 0.000000e+00 0.000000e+00
1
Step 187000
Ar 7.573843e-01 0.000000e+00 0.000000e+00
1
Step 188000
Ar 7.848122e-01 0.000000e+00 0.000000e+00
1
Step 189000
Ar 7.476093e-01 0.000000e+00 0.000000e+00
1
Step 190000
Ar 7.559479e-01 0.000000e+00 0.000000e+00
1
Step 191000
Ar 6.826871e-01 0.000000e+00 0.000000e+00
1
Step 192000
Ar 4.350366e-01 0.000000e+00 0.000000e+00
1
Step 193000
Ar 5.662472e-01 0.000000e+00 0.000000e+00
1
Step 194000
Ar 6.294939e-01 0.000000e+00 0.000000e+00
1
Step 195000
Ar 6.266287e-01 0.000000e+00 0.000000e+00
1
Step 196000
Ar 7.331900e-01 0.000000e+00 0.000000e+00
1
Step 197000
Ar 7.388431e-01 0.000000e+00 0.000000e+00
1
Step 198000
Ar 7.399915e-01 0.000000e+00 0.000000e+00
1
Step 199000
Ar 7.389453e-01 0.000000e+00 0.000000e+00
1
Step 200000
Ar 7.356636e-01 0.000000e+00 0.000000e+00
1
Step 201000
Ar 7.019571e-01 0.000000e+00 0.000000e+00
1
Step 202000
Ar 6.881823e-01 0.000000e+00 0.000000e+00
1
Step 203000
Ar 6.467076e-01 0.000000e+00 0.000000e+00
1
Step 204000
Ar 6.876554e-01 0.000000e+00 0.000000e+00
1
Step 205000
Ar 6.961566e-01 0.000000e+00 0.000000e+00
1
Step 206000
Ar 6.586170e-01 0.000000e+00 0.000000e+00
1
Step 207000
Ar 6.448229e-01 0.000000e+00 0.000000e+00
1
Step 208000
Ar 6.419595e-01 0.000000e+00 0.000000e+00
1
Step 209000
Ar 6.782572e-01 0.000000e+00 0.000000e+00
1
Step 210000
Ar 6.465940e-01 0.000000e+00 0.000000e+00
1
Step 211000
Ar 6.843963e-01 0.000000e+00 0.000000e+00
1
Step 212000
Ar 6.829534e-01 0.000000e+00 0.000000e+00
1
Step 213000
Ar 6.691725e-01 0.000000e+00 0.000000e+00
1
Step 214000
Ar 6.643551e-01 0.000000e+00 0.000000e+00
1
Step 215000
Ar 6.645262e-01 0.000000e+00 0.000000e+00
1
Step 216000
Ar -7.068943e-01 0.000000e+00 0.000000e+00
1
Step 217000
Ar -8.857783e-01 0.000000e+00 0.000000e+00
1
Step 218000
Ar -8.801134e-01 0.000000e+00 0.000000e+00
1
Step 219000
Ar -8.046792e-01 0.000000e+00 0.000000e+00
1
Step 220000
Ar -1.029530e+00 0.000000e+00 0.000000e+00
1
Step 221000
Ar -1.011957e+00 0.000000e+00 0.000000e+00
1
Step 222000
Ar -8.789371e-01 0.000000e+00 0.000000e+00
1
Step 223000
Ar -7.260028e-01 0.000000e+00 0.000000e+00
1
Step 224000
Ar -1.005481e+00 0.000000e+00 0.000000e+00
1
Step 225000
Ar -9.911959e-01 0.000000e+00 0.000000e+00
1
Step 226000
Ar -7.980491e-01 0.000000e+00 0.000000e+00
1
Step 227000
Ar -9.792156e-01 0.000000e+00 0.000000e+00
1
Step 228000
Ar -8.013977e-01 0.000000e+00 0.000000e+00
1
Step 229000
Ar -8.519831e-01 0.000000e+00 0.000000e+00
1
Step 230000
Ar -9.092047e-01 0.000000e+00 0.000000e+00
1
Step 231000
Ar -9.730273e-01 0.000000e+00 0.000000e+00
1
Step 232000
Ar -9.555153e-01 0.000000e+00 0.000000e+00
1
Step 233000
Ar -9.559172e-01 0.000000e+00 0.000000e+00
1
Step 234000
Ar -9.419950e-01 0.000000e+00 0.000000e+00
1
Step 235000
Ar -9.511895e-01 0.000000e+00 0.000000e+00
1
Step 236000
Ar -9.642169e-01 0.000000e+00 0.000000e+00
1
Step 237000
Ar -9.658864e-01 0.000000e+00 0.000000e+00
1
Step 238000
Ar -9.622433e-01 0.000000e+00 0.000000e+00
1
Step 239000
Ar -9.750947e-01 0.000000e+00 0.000000e+00
1
Step 240000
Ar -9.716662e-01 0.000000e+00 0.000000e+00
1
Step 241000
Ar -1.129161e+00 0.000000e+00 0.000000e+00
1
Step 242000
Ar -1.238357e+00 0.000000e+00 0.000000e+00
1
Step 243000
Ar -1.086052e+00 0.000000e+00 0.000000e+00
1
Step 244000
Ar -1.118594e+00 0.000000e+00 0.000000e+00
1
Step 245000
Ar -1.203073e+00 0.000000e+00 0.000000e+00
1
Step 246000
Ar -1.278374e+00 0.000000e+00 0.000000e+00
1
Step 247000
Ar -1.217939e+00 0.000000e+00 0.000000e+00
1
Step 248000
Ar -1.230814e+00 0.000000e+00 0.000000e+00
1
Step 249000
Ar -1.314202e+00 0.000000e+00 0.000000e+00
1
Step 250000
Ar -1.260468e+00 0.000000e+00 0.000000e+00
1
Step 251000
Ar -8.478099e-01 0.000000e+00 0.000000e+00
1
Step 252000
Ar -5.719346e-01 0.000000e+00 0.000000e+00
1
Step 253000
Ar -8.607799e-01 0.000000e+00 0.000000e+00
1
Step 254000
Ar -8.765205e-01 0.000000e+00 0.000000e+00
1
Step 255000
Ar -7.459333e-01 0.000000e+00 0.000000e+00
1
Step 256000
Ar -7.006094e-01 0.000000e+00 0.000000e+00
1
Step 257000
Ar -7.051602e-01 0.000000e+00 0.000000e+00
1
Step 258000
Ar -7.264600e-01 0.000000e+00 0.000000e+00
1
Step 259000
Ar -6.596394e-01 0.000000e+00 0.000000e+00
1
Step 260000
Ar -6.822359e-01 0.000000e+00 0.000000e+00
1
Step 261000
Ar -7.024597e-01 0.000000e+00 0.000000e+00
1
Step 262000
Ar -7.303773e-01 0.000000e+00 0.000000e+00
1
Step 263000
Ar -6.922576e-01 0.000000e+00 0.000000e+00
1
Step 264000
Ar -7.295039e-01 0.000000e+00 0.000000e+00
1
Step 265000
Ar -7.265055e-01 0.000000e+00 0.000000e+00
1
Step 266000
Ar -7.849680e-01 0.000000e+00 0.000000e+00
1
Step 267000
Ar -8.903003e-01 0.000000e+00 0.000000e+00
1
Step 268000
Ar -8.904117e-01 0.000000e+00 0.000000e+00
1
Step 269000
Ar -8.584127e-01 0.000000e+00 0.000000e+00
1
Step 270000
Ar -8.024203e-01 0.000000e+00 0.000000e+00
1
Step 271000
Ar -8.876533e-01 0.000000e+00 0.000000e+00
1
Step 272000
Ar -8.360313e-01 0.000000e+00 0.000000e+00
1
Step 273000
Ar -8.601269e-01 0.000000e+00 0.000000e+00
1
Step 274000
Ar -8.848025e-01 0.000000e+00 0.000000e+00
1
Step 275000
Ar -8.555565e-01 0.000000e+00 0.000000e+00
1
Step 276000
Ar -8.895157e-01 0.000000e+00 0.000000e+00
1
Step 277000
Ar -8.840857e-01 0.000000e+00 0.000000e+00
1
Step 278000
Ar -8.944454e-01 0.000000e+00 0.000000e+00
1
Step 279000
Ar -8.738754e-01 0.000000e+00 0.000000e+00
1
Step 280000
Ar -8.794979e-01 0.000000e+00 0.000000e+00
1
Step 281000
Ar -8.637967e-01 0.000000e+00 0.000000e+00
1
Step 282000
Ar -8.672685e-01 0.000000e+00 0.000000e+00
1
Step 283000
Ar -8.666609e-01 0.000000e+00 0.000000e+00
1
Step 284000
Ar -8.633866e-01 0.000000e+00 0.000000e+00
1
Step 285000
Ar -8.632590e-01 0.000000e+00 0.000000e+00
1
Step 286000
Ar -1.015601e+00 0.000000e+00 0.000000e+00
1
Step 287000
Ar -1.013605e+00 0.000000e+00 0.000000e+00
1
Step 288000
Ar -1.011606e+00 0.000000e+00 0.000000e+00
1
Step 289000
Ar -1.012108e+00 0.000000e+00 0.000000e+00
1
Step 290000
Ar -1.014360e+00 0.000000e+00 0.000000e+00
1
Step 291000
Ar -1.078188e+00 0.000000e+00 0.000000e+00
1
Step 292000
Ar -1.060003e+00 0.000000e+00 0.000000e+00
1
Step 293000
Ar -1.107121e+00 0.000000e+00 0.000000e+00
1
Step 294000
Ar -1.114544e+00 0.000000e+00 0.000000e+00
1
Step 295000
Ar -1.160798e+00 0.000000e+00 0.000000e+00
1
Step 296000
Ar -1.139446e+00 0.000000e+00 0.000000e+00
1
Step 297000
Ar -1.114669e+00 0.000000e+00 0.000000e+00
1
Step 298000
Ar -1.091334e+00 0.000000e+00 0.000000e+00
1
Step 299000
Ar -1.105587e+00 0.000000e+00 0.000000e+00
1
Step 300000
Ar -1.129850e+00 0.000000e+00 0.000000e+00
1
Step 301000
Ar -1.059232e+00 0.000000e+00 0.000000e+00
1
Step 302000
Ar -1.068598e+00 0.000000e+00 0.000000e+00
1
Step 303000
Ar -1.071111e+00 0.000000e+00 0.000000e+00
1
Step 304000
Ar -1.079446e+00 0.000000e+00 0.000000e+00
1
Step 305000
Ar -1.059410e+00 0.000000e+00 0.000000e+00
1
Step 306000
Ar -1.236586e+00 0.000000e+00 0.000000e+00
1
Step 307000
Ar -1.224800e+00 0.000000e+00 0.000000e+00
1
Step 308000
Ar -1.222415e+00 0.000000e+00 0.000000e+00
1
Step 309000
Ar -1.248897e+00 0.000000e+00 0.000000e+00
1
Step 310000
Ar -1.222950e+00 0.000000e+00 0.000000e+00
1
Step 311000
Ar -1.148137e+00 0.000000e+00 0.000000e+00
1
Step 312000
Ar -1.141911e+00 0.000000e+00 0.000000e+00
1
Step 313000
Ar -1.140499e+00 0.000000e+00 0.000000e+00
1
Step 314000
Ar -1.143069e+00 0.000000e+00 0.000000e+00
1
Step 315000
Ar -1.144750e+00 0.000000e+00 0.000000e+00
1
Step 316000
Ar -1.041987e+00 0.000000e+00 0.000000e+00
1
Step 317000
Ar -1.042826e+00 0.000000e+00 0.000000e+00
1
Step 318000
Ar -1.045758e+00 0.000000e+00 0.000000e+00
1
Step 319000
Ar -1.041429e+00 0.000000e+00 0.000000e+00
1
Step 320000
Ar -1.044080e+00 0.000000e+00 0.000000e+00
1
Step 321000
Ar -1.090098e+00 0.000000e+00 0.000000e+00
1
Step 322000
Ar -1.087330e+00 0.000000e+00 0.000000e+00
1
Step 323000
Ar -1.104232e+00 0.000000e+00 0.000000e+00
1
Step 324000
Ar -1.096190e+00 0.000000e+00 0.000000e+00
1
Step 325000
Ar -1.093989e+00 0.000000e+00 0.000000e+00
1
Step 326000
Ar -1.001527e+00 0.000000e+00 0.000000e+00
1
Step 327000
Ar -1.003043e+00 0.000000e+00 0.000000e+00
1
Step 328000
Ar -1.003620e+00 0.000000e+00 0.000000e+00
1
Step 329000
Ar -1.001024e+00 0.000000e+00 0.000000e+00
1
Step 330000
Ar -1.006650e+00 0.000000e+00 0.000000e+00
1
Step 331000
Ar -9.218313e-01 0.000000e+00 0.000000e+00
1
Step 332000
Ar -9.251864e-01 0.000000e+00 0.000000e+00
1
Step 333000
Ar -9.376364e-01 0.000000e+00 0.000000e+00
1
Step 334000
Ar -9.191383e-01 0.000000e+00 0.000000e+00
1
Step 335000
Ar -9.292104e-01 0.000000e+00 0.000000e+00
1
Step 336000
Ar -9.193109e-01 0.000000e+00 0.000000e+00
1
Step 337000
Ar -9.203014e-01 0.000000e+00 0.000000e+00
1
Step 338000
Ar -9.241532e-01 0.000000e+00 0.000000e+00
1
Step 339000
Ar -9.206960e-01 0.000000e+00 0.000000e+00
1
Step 340000
Ar -9.016725e-01 0.000000e+00 0.000000e+00
1
Step 341000
Ar -5.930908e-01 0.000000e+00 0.000000e+00
1
Step 342000
Ar -6.404253e-01 0.000000e+00 0.000000e+00
1
Step 343000
Ar -6.002220e-01 0.000000e+00 0.000000e+00
1
Step 344000
Ar -5.672673e-01 0.000000e+00 0.000000e+00
1
Step 345000
Ar -5.054428e-01 0.000000e+00 0.000000e+00
1
Step 346000
Ar -6.653605e-01 0.000000e+00 0.000000e+00
1
Step 347000
Ar -6.449272e-01 0.000000e+00 0.000000e+00
1
Step 348000
Ar -6.674364e-01 0.000000e+00 0.000000e+00
1
Step 349000
Ar -6.038473e-01 0.000000e+00 0.000000e+00
1
Step 350000
Ar -6.619090e-01 0.000000e+00 0.000000e+00
1
Step 351000
Ar -5.981438e-01 0.000000e+00 0.000000e+00
1
Step 352000
Ar -5.804459e-01 0.000000e+00 0.000000e+00
1
Step 353000
Ar -6.318009e-01 0.000000e+00 0.000000e+00
1
Step 354000
Ar -6.399473e-01 0.000000e+00 0.000000e+00
1
Step 355000
Ar -6.420927e-01 0.000000e+00 0.000000e+00
1
Step 356000
Ar -8.200200e-01 0.000000e+00 0.000000e+00
1
Step 357000
Ar -8.135623e-01 0.000000e+00 0.000000e+00
1
Step 358000
Ar -8.205640e-01 0.000000e+00 0.000000e+00
1
Step 359000
Ar -8.222472e-01 0.000000e+00 0.000000e+00
1
Step 360000
Ar -8.134056e-01 0.000000e+00 0.000000e+00
1
Step 361000
Ar -8.326732e-01 0.000000e+00 0.000000e+00
1
Step 362000
Ar -8.268425e-01 0.000000e+00 0.000000e+00
1
Step 363000
Ar -8.425592e-01 0.000000e+00 0.000000e+00
1
Step 364000
Ar -8.310446e-01 0.000000e+00 0.000000e+00
1
Step 365000
Ar -8.393341e-01 0.000000e+00 0.000000e+00
1
Step 366000
Ar -8.266715e-01 0.000000e+00 0.000000e+00
1
Step 367000
Ar -8.256493e-01 0.000000e+00 0.000000e+00
1
Step 368000
Ar -8.282464e-01 0.000000e+00 0.000000e+00
1
Step 369000
Ar -8.234058e-01 0.000000e+00 0.000000e+00
1
Step 370000
Ar -8.297614e-01 0.000000e+00 0.000000e+00
1
Step 371000
Ar -7.775835e-01 0.000000e+00 0.000000e+00
1
Step 372000
Ar -7.666231e-01 0.000000e+00 0.000000e+00
1
Step 373000
Ar -7.792790e-01 0.000000e+00 0.000000e+00
1
Step 374000
Ar -7.772549e-01 0.000000e+00 0.000000e+00
1
Step 375000
Ar -7.624246e-01 0.000000e+00 0.000000e+00
1
Step 376000
Ar -7.814825e-01 0.000000e+00 0.000000e+00
1
Step 377000
Ar -7.868212e-01 0.000000e+00 0.000000e+00
1
Step 378000
Ar -7.889715e-01 0.000000e+00 0.000000e+00
1
Step 379000
Ar -7.790445e-01 0.000000e+00 0.000000e+00
1
Step 380000
Ar -7.784051e-01 0.000000e+00 0.000000e+00
1
Step 381000
Ar -7.885664e-01 0.000000e+00 0.000000e+00
1
Step 382000
Ar -7.893117e-01 0.000000e+00 0.000000e+00
1
Step 383000
Ar -7.918229e-01 0.000000e+00 0.000000e+00
1
Step 384000
Ar -7.957496e-01 0.000000e+00 0.000000e+00
1
Step 385000
Ar -7.901217e-01 0.000000e+00 0.000000e+00
1
Step 386000
Ar -9.518402e-01 0.000000e+00 0.000000e+00
1
Step 387000
Ar -9.404768e-01 0.000000e+00 0.000000e+00
1
Step 388000
Ar -9.369630e-01 0.000000e+00 0.000000e+00
1
Step 389000
Ar -9.422451e-01 0.000000e+00 0.000000e+00
1
Step 390000
Ar -9.435034e-01 0.000000e+00 0.000000e+00
1
Step 391000
Ar -4.332530e-01 0.000000e+00 0.000000e+00
1
Step 392000
Ar -4.502693e-01 0.000000e+00 0.000000e+00
1
Step 393000
Ar -4.086467e-01 0.000000e+00 0.000000e+00
1
Step 394000
Ar -4.204584e-01 0.000000e+00 0.000000e+00
1
Step 395000
Ar 1.086784e-01 0.000000e+00 0.000000e+00
1
Step 396000
Ar 5.370277e-01 0.000000e+00 0.000000e+00
1
Step 397000
Ar 5.916862e-01 0.000000e+00 0.000000e+00
1
Step 398000
Ar 5.685348e-01 0.000000e+00 0.000000e+00
1
Step 399000
Ar 4.162106e-01 0.000000e+00 0.000000e+00
1
Step 400000
Ar 5.753260e-01 0.000000e+00 0.000000e+00
1
Step 401000
Ar 9.622710e-01 0.000000e+00 0.000000e+00
1
Step 402000
Ar 9.676815e-01 0.000000e+00 0.000000e+00
1
Step 403000
Ar 1.024032e+00 0.000000e+00 0.000000e+00
1
Step 404000
Ar 1.012478e+00 0.000000e+00 0.000000e+00
1
Step 405000
Ar 1.016129e+00 0.000000e+00 0.000000e+00
1
Step 406000
Ar 9.780925e-01 0.000000e+00 0.000000e+00
1
Step 407000
Ar 9.770193e-01 0.000000e+00 0.000000e+00
1
Step 408000
Ar 9.677143e-01 0.000000e+00 0.000000e+00
1
Step 409000
Ar 9.589445e-01 0.000000e+00 0.000000e+00
1
Step 410000
Ar 9.973253e-01 0.000000e+00 0.000000e+00
1
Step 411000
Ar 9.647062e-01 0.000000e+00 0.000000e+00
1
Step 412000
Ar 9.675813e-01 0.000000e+00 0.000000e+00
1
Step 413000
Ar 9.593358e-01 0.000000e+00 0.000000e+00
1
Step 414000
Ar 9.747912e-01 0.000000e+00 0.000000e+00
1
Step 415000
Ar 9.604382e-01 0.000000e+00 0.000000e+00
1
Step 416000
Ar 9.801719e-01 0.000000e+00 0.000000e+00
1
Step 417000
Ar 9.754620e-01 0.000000e+00 0.000000e+00
1
Step 418000
Ar 9.779547e-01 0.000000e+00 0.000000e+00
1
Step 419000
Ar 9.809609e-01 0.000000e+00 0.000000e+00
1
Step 420000
Ar 9.802928e-01 0.000000e+00 0.000000e+00
1
Step 421000
Ar 7.065819e-01 0.000000e+00 0.000000e+00
1
Step 422000
Ar 7.093904e-01 0.000000e+00 0.000000e+00
1
Step 423000
Ar 7.079959e-01 0.000000e+00 0.000000e+00
1
Step 424000
Ar 7.034352e-01 0.000000e+00 0.000000e+00
1
Step 425000
Ar 7.080111e-01 0.000000e+00 0.000000e+00
1
Step 426000
Ar 1.314517e+00 0.000000e+00 0.000000e+00
1
Step 427000
Ar 1.334889e+00 0.000000e+00 0.000000e+00
1
Step 428000
Ar 1.383294e+00 0.000000e+00 0.000000e+00
1
Step 429000
Ar 1.382580e+00 0.000000e+00 0.000000e+00
1
Step 430000
Ar 1.338933e+00 0.000000e+00 0.000000e+00
1
Step 431000
Ar 1.352816e+00 0.000000e+00 0.000000e+00
1
Step 432000
Ar 1.386970e+00 0.000000e+00 0.000000e+00
1
Step 433000
Ar 1.367677e+00 0.000000e+00 0.000000e+00
1
Step 434000
Ar 1.387614e+00 0.000000e+00 0.000000e+00
1
Step 435000
Ar 1.351047e+00 0.000000e+00 0.000000e+00
1
Step 436000
Ar 1.406744e+00 0.000000e+00 0.000000e+00
1
Step 437000
Ar 1.390647e+00 0.000000e+00 0.000000e+00
1
Step 438000
Ar 1.361085e+00 0.000000e+00 0.000000e+00
1
Step 439000
Ar 1.375675e+00 0.000000e+00 0.000000e+00
1
Step 440000
Ar 1.380373e+00 0.000000e+00 0.000000e+00
1
Step 441000
Ar 8.775938e-01 0.000000e+00 0.000000e+00
1
Step 442000
Ar 8.550025e-01 0.000000e+00 0.000000e+00
1
Step 443000
Ar 8.584900e-01 0.000000e+00 0.000000e+00
1
Step 444000
Ar 8.537865e-01 0.000000e+00 0.000000e+00
1
Step 445000
Ar 8.319595e-01 0.000000e+00 0.000000e+00
1
Step 446000
Ar 8.460857e-01 0.000000e+00 0.000000e+00
1
Step 447000
Ar 8.452075e-01 0.000000e+00 0.000000e+00
1
Step 448000
Ar 8.479533e-01 0.000000e+00 0.000000e+00
1
Step 449000
Ar 8.553922e-01 0.000000e+00 0.000000e+00
1
Step 450000
Ar 8.571358e-01 0.000000e+00 0.000000e+00
1
Step 451000
Ar 1.006929e+00 0.000000e+00 0.000000e+00
1
Step 452000
Ar 9.902648e-01 0.000000e+00 0.000000e+00
1
Step 453000
Ar 9.868133e-01 0.000000e+00 0.000000e+00
1
Step 454000
Ar 8.431230e-01 0.000000e+00 0.000000e+00
1
Step 455000
Ar 8.402974e-01 0.000000e+00 0.000000e+00
1
Step 456000
Ar 1.226878e+00 0.000000e+00 0.000000e+00
1
Step 457000
Ar 1.226639e+00 0.000000e+00 0.000000e+00
1
Step 458000
Ar 1.226357e+00 0.000000e+00 0.000000e+00
1
Step 459000
Ar 1.237739e+00 0.000000e+00 0.000000e+00
1
Step 460000
Ar 1.240004e+00 0.000000e+00 0.000000e+00
1
Step 461000
Ar 1.271854e+00 0.000000e+00 0.000000e+00
1
Step 462000
Ar 1.267568e+00 0.000000e+00 0.000000e+00
1
Step 463000
Ar 1.270984e+00 0.000000e+00 0.000000e+00
1
Step 464000
Ar 1.270529e+00 0.000000e+00 0.000000e+00
1
Step 465000
Ar 1.265224e+00 0.000000e+00 0.000000e+00
1
Step 466000
Ar 1.269989e+00 0.000000e+00 0.000000e+00
1
Step 467000
Ar 1.279262e+00 0.000000e+00 0.000000e+00
1
Step 468000
Ar 1.278456e+00 0.000000e+00 0.000000e+00
1
Step 469000
Ar 1.277475e+00 0.000000e+00 0.000000e+00
1
Step 470000
Ar 1.276367e+00 0.000000e+00 0.000000e+00
1
Step 471000
Ar 1.317799e+00 0.000000e+00 0.000000e+00
1
Step 472000
Ar 1.320870e+00 0.000000e+00 0.000000e+00
1
Step 473000
Ar 1.316350e+00 0.000000e+00 0.000000e+00
1
Step 474000
Ar 1.313068e+00 0.000000e+00 0.000000e+00
1
Step 475000
Ar 1.318279e+00 0.000000e+00 0.000000e+00
1
Step 476000
Ar 1.330548e+00 0.000000e+00 0.000000e+00
1
Step 477000
Ar 1.328662e+00 0.000000e+00 0.000000e+00
1
Step 478000
Ar 1.332278e+00 0.000000e+00 0.000000e+00
1
Step 479000
Ar 1.330536e+00 0.000000e+00 0.000000e+00
1
Step 480000
Ar 1.328740e+00 0.000000e+00 0.000000e+00
1
Step 481000
Ar 1.370263e+00 0.000000e+00 0.000000e+00
1
Step 482000
Ar 1.358203e+00 0.000000e+00 0.000000e+00
1
Step 483000
Ar 1.362278e+00 0.000000e+00 0.000000e+00
1
Step 484000
Ar 1.368105e+00 0.000000e+00 0.000000e+00
1
Step 485000
Ar 1.359158e+00 0.000000e+00 0.000000e+00
1
Step 486000
Ar 1.396910e+00 0.000000e+00 0.000000e+00
1
Step 487000
Ar 1.391849e+00 0.000000e+00 0.000000e+00
1
Step 488000
Ar 1.394513e+00 0.000000e+00 0.000000e+00
1
Step 489000
Ar 1.440737e+00 0.000000e+00 0.000000e+00
1
Step 490000
Ar 1.414874e+00 0.000000e+00 0.000000e+00
1
Step 491000
Ar 1.370766e+00 0.000000e+00 0.000000e+00
1
Step 492000
Ar 1.372388e+00 0.000000e+00 0.000000e+00
1
Step 493000
Ar 1.367812e+00 0.000000e+00 0.000000e+00
1
Step 494000
Ar 1.370872e+00 0.000000e+00 0.000000e+00
1
Step 495000
Ar 1.369553e+00 0.000000e+00 0.000000e+00
1
Step 496000
Ar 1.405476e+00 0.000000e+00 0.000000e+00
1
Step 497000
Ar 1.396519e+00 0.000000e+00 0.000000e+00
1
Step 498000
Ar 1.393422e+00 0.000000e+00 0.000000e+00
1
Step 499000
Ar 1.395966e+00 0.000000e+00 0.000000e+00
1
Step 500000
Ar 1.391891e+00 0.000000e+00 0.000000e+00
1
Step 501000
Ar 1.428238e+00 0.000000e+00 0.000000e+00
1
Step 502000
Ar 1.444756e+00 0.000000e+00 0.000000e+00
1
Step 503000
Ar 1.432153e+00 0.000000e+00 0.000000e+00
1
Step 504000
Ar 1.437261e+00 0.000000e+00 0.000000e+00
1
Step 505000
Ar 1.468002e+00 0.000000e+00 0.000000e+00
1
Step 506000
Ar 9.723572e-01 0.000000e+00 0.000000e+00
1
Step 507000
Ar 9.721282e-01 0.000000e+00 0.000000e+00
1
Step 508000
Ar 1.075400e+00 0.000000e+00 0.000000e+00
1
Step 509000
Ar 1.120582e+00 0.000000e+00 0.000000e+00
1
Step 510000
Ar 1.100869e+00 0.000000e+00 0.000000e+00
1
Step 511000
Ar 1.081156e+00 0.000000e+00 0.000000e+00
1
Step 512000
Ar 1.049139e+00 0.000000e+00 0.000000e+00
1
Step 513000
Ar 1.038650e+00 0.000000e+00 0.000000e+00
1
Step 514000
Ar 1.035173e+00 0.000000e+00 0.000000e+00
1
Step 515000
Ar 1.076504e+00 0.000000e+00 0.000000e+00
1
Step 516000
Ar 1.084962e+00 0.000000e+00 0.000000e+00
1
Step 517000
Ar 1.089613e+00 0.000000e+00 0.000000e+00
1
Step 518000
Ar 1.088116e+00 0.000000e+00 0.000000e+00
1
Step 519000
Ar 1.087363e+00 0.000000e+00 0.000000e+00
1
Step 520000
Ar 1.089762e+00 0.000000e+00 0.000000e+00
1
Step 521000
Ar 9.490301e-01 0.000000e+00 0.000000e+00
1
Step 522000
Ar 9.451159e-01 0.000000e+00 0.000000e+00
1
Step 523000
Ar 9.464789e-01 0.000000e+00 0.000000e+00
1
Step 524000
Ar 9.465697e-01 0.000000e+00 0.000000e+00
1
Step 525000
Ar 9.448931e-01 0.000000e+00 0.000000e+00
1
Step 526000
Ar 1.222561e+00 0.000000e+00 0.000000e+00
1
Step 527000
Ar 1.223319e+00 0.000000e+00 0.000000e+00
1
Step 528000
Ar 1.224382e+00 0.000000e+00 0.000000e+00
1
Step 529000
Ar 1.220741e+00 0.000000e+00 0.000000e+00
1
Step 530000
Ar 1.218887e+00 0.000000e+00 0.000000e+00
1
Step 531000
Ar 1.228620e+00 0.000000e+00 0.000000e+00
1
Step 532000
Ar 1.229761e+00 0.000000e+00 0.000000e+00
1
Step 533000
Ar 1.197948e+00 0.000000e+00 0.000000e+00
1
Step 534000
Ar 1.199991e+00 0.000000e+00 0.000000e+00
1
Step 535000
Ar 1.195338e+00 0.000000e+00 0.000000e+00
1
Step 536000
Ar 1.228796e+00 0.000000e+00 0.000000e+00
1
Step 537000
Ar 1.227198e+00 0.000000e+00 0.000000e+00
1
Step 538000
Ar 1.234076e+00 0.000000e+00 0.000000e+00
1
Step 539000
Ar 1.228414e+00 0.000000e+00 0.000000e+00
1
Step 540000
Ar 1.229076e+00 0.000000e+00 0.000000e+00
1
Step 541000
Ar -4.665186e-01 0.000000e+00 0.000000e+00
1
Step 542000
Ar -4.746420e-01 0.000000e+00 0.000000e+00
1
Step 543000
Ar -3.963375e-01 0.000000e+00 0.000000e+00
1
Step 544000
Ar -4.853331e-01 0.000000e+00 0.000000e+00
1
Step 545000
Ar -4.880330e-01 0.000000e+00 0.000000e+00
1
Step 546000
Ar -4.162266e-01 0.000000e+00 0.000000e+00
1
Step 547000
Ar -4.584592e-01 0.000000e+00 0.000000e+00
1
Step 548000
Ar -1.223895e-01 0.000000e+00 0.000000e+00
1
Step 549000
Ar -4.505371e-01 0.000000e+00 0.000000e+00
1
Step 550000
Ar -1.781703e-01 0.000000e+00 0.000000e+00
1
Step 551000
Ar -4.693723e-01 0.000000e+00 0.000000e+00
1
Step 552000
Ar -4.237664e-01 0.000000e+00 0.000000e+00
1
Step 553000
Ar -4.020213e-01 0.000000e+00 0.000000e+00
1
Step 554000
Ar -4.641438e-01 0.000000e+00 0.000000e+00
1
Step 555000
Ar -4.028158e-01 0.000000e+00 0.000000e+00
1
Step 556000
Ar -3.505462e-01 0.000000e+00 0.000000e+00
1
Step 557000
Ar -3.572206e-01 0.000000e+00 0.000000e+00
1
Step 558000
Ar -3.256777e-01 0.000000e+00 0.000000e+00
1
Step 559000
Ar -3.822122e-01 0.000000e+00 0.000000e+00
1
Step 560000
Ar -3.571611e-01 0.000000e+00 0.000000e+00
1
Step 561000
Ar -3.066749e-01 0.000000e+00 0.000000e+00
1
Step 562000
Ar -3.464683e-01 0.000000e+00 0.000000e+00
1
Step 563000
Ar -3.319945e-01 0.000000e+00 0.000000e+00
1
Step 564000
Ar -2.872022e-01 0.000000e+00 0.000000e+00
1
Step 565000
Ar -3.185468e-01 0.000000e+00 0.000000e+00
1
Step 566000
Ar -3.856842e-01 0.000000e+00 0.000000e+00
1
Step 567000
Ar -3.795950e-01 0.000000e+00 0.000000e+00
1
Step 568000
Ar -3.885954e-01 0.000000e+00 0.000000e+00
1
Step 569000
Ar -3.802325e-01 0.000000e+00 0.000000e+00
1
Step 570000
Ar -3.670703e-01 0.000000e+00 0.000000e+00
1
Step 571000
Ar -4.714018e-01 0.000000e+00 0.000000e+00
1
Step 572000
Ar -4.639806e-01 0.000000e+00 0.000000e+00
1
Step 573000
Ar -4.721747e-01 0.000000e+00 0.000000e+00
1
Step 574000
Ar -4.442398e-01 0.000000e+00 0.000000e+00
1
Step 575000
Ar -4.548158e-01 0.000000e+00 0.000000e+00
1
Step 576000
Ar -4.375787e-01 0.000000e+00 0.000000e+00
1
Step 577000
Ar -4.181757e-01 0.000000e+00 0.000000e+00
1
Step 578000
Ar -4.214019e-01 0.000000e+00 0.000000e+00
1
Step 579000
Ar -4.355700e-01 0.000000e+00 0.000000e+00
1
Step 580000
Ar -4.159105e-01 0.000000e+00 0.000000e+00
1
Step 581000
Ar -5.699982e-01 0.000000e+00 0.000000e+00
1
Step 582000
Ar -5.858654e-01 0.000000e+00 0.000000e+00
1
Step 583000
Ar -6.254929e-01 0.000000e+00 0.000000e+00
1
Step 584000
Ar -6.194946e-01 0.000000e+00 0.000000e+00
1
Step 585000
Ar -6.222483e-01 0.000000e+00 0.000000e+00
1
Step 586000
Ar -6.341141e-01 0.000000e+00 0.000000e+00
1
Step 587000
Ar -6.347477e-01 0.000000e+00 0.000000e+00
1
Step 588000
Ar -6.309482e-01 0.000000e+00 0.000000e+00
1
Step 589000
Ar -6.051637e-01 0.000000e+00 0.000000e+00
1
Step 590000
Ar -5.852128e-01 0.000000e+00 0.000000e+00
1
Step 591000
Ar -5.630715e-01 0.000000e+00 0.000000e+00
1
Step 592000
Ar -5.251234e-01 0.000000e+00 0.000000e+00
1
Step 593000
Ar -5.318027e-01 0.000000e+00 0.000000e+00
1
Step 594000
Ar -5.466552e-01 0.000000e+00 0.000000e+00
1
Step 595000
Ar -5.505979e-01 0.000000e+00 0.000000e+00
1
Step 596000
Ar -6.064569e-01 0.000000e+00 0.000000e+00
1
Step 597000
Ar -6.021701e-01 0.000000e+00 0.000000e+00
1
Step 598000
Ar -6.051335e-01 0.000000e+00 0.000000e+00
1
Step 599000
Ar -5.989782e-01 0.000000e+00 0.000000e+00
1
Step 600000
Ar -6.001005e-01 0.000000e+00 0.000000e+00
1
Step 601000
Ar -6.107759e-01 0.000000e+00 0.000000e+00
1
Step 602000
Ar -6.127801e-01 0.000000e+00 0.000000e+00
1
Step 603000
Ar -6.084170e-01 0.000000e+00 0.000000e+00
1
Step 604000
Ar -6.110273e-01 0.000000e+00 0.000000e+00
1
Step 605000
Ar -6.110005e-01 0.000000e+00 0.000000e+00
1
Step 606000
Ar -5.695684e-01 0.000000e+00 0.000000e+00
1
Step 607000
Ar -5.727447e-01 0.000000e+00 0.000000e+00
1
Step 608000
Ar -5.675301e-01 0.000000e+00 0.000000e+00
1
Step 609000
Ar -5.577547e-01 0.000000e+00 0.000000e+00
1
Step 610000
Ar -5.677356e-01 0.000000e+00 0.000000e+00
1
Step 611000
Ar -5.606362e-01 0.000000e+00 0.000000e+00
1
Step 612000
Ar -5.612096e-01 0.000000e+00 0.000000e+00
1
Step 613000
Ar -5.338362e-01 0.000000e+00 0.000000e+00
1
Step 614000
Ar -5.192708e-01 0.000000e+00 0.000000e+00
1
Step 615000
Ar -5.353033e-01 0.000000e+00 0.000000e+00
1
Step 616000
Ar -5.244862e-01 0.000000e+00 0.000000e+00
1
Step 617000
Ar -5.195057e-01 0.000000e+00 0.000000e+00
1
Step 618000
Ar -5.259150e-01 0.000000e+00 0.000000e+00
1
Step 619000
Ar -5.243879e-01 0.000000e+00 0.000000e+00
1
Step 620000
Ar -5.202680e-01 0.000000e+00 0.000000e+00
1
Step 621000
Ar -5.781265e-01 0.000000e+00 0.000000e+00
1
Step 622000
Ar -4.698190e-01 0.000000e+00 0.000000e+00
1
Step 623000
Ar -4.726954e-01 0.000000e+00 0.000000e+00
1
Step 624000
Ar -4.665629e-01 0.000000e+00 0.000000e+00
1
Step 625000
Ar -4.718451e-01 0.000000e+00 0.000000e+00
1
Step 626000
Ar -4.366156e-01 0.000000e+00 0.000000e+00
1
Step 627000
Ar -4.409063e-01 0.000000e+00 0.000000e+00
1
Step 628000
Ar -4.370254e-01 0.000000e+00 0.000000e+00
1
Step 629000
Ar -4.375189e-01 0.000000e+00 0.000000e+00
1
Step 630000
Ar -4.364808e-01 0.000000e+00 0.000000e+00
1
Step 631000
Ar -1.174180e+00 0.000000e+00 0.000000e+00
1
Step 632000
Ar -1.173352e+00 0.000000e+00 0.000000e+00
1
Step 633000
Ar -1.180295e+00 0.000000e+00 0.000000e+00
1
Step 634000
Ar -1.172432e+00 0.000000e+00 0.000000e+00
1
Step 635000
Ar -1.179289e+00 0.000000e+00 0.000000e+00
1
Step 636000
Ar -1.165696e+00 0.000000e+00 0.000000e+00
1
Step 637000
Ar -1.170221e+00 0.000000e+00 0.000000e+00
1
Step 638000
Ar -1.171196e+00 0.000000e+00 0.000000e+00
1
Step 639000
Ar -1.170783e+00 0.000000e+00 0.000000e+00
1
Step 640000
Ar -1.037711e+00 0.000000e+00 0.000000e+00
1
Step 641000
Ar -9.365071e-01 0.000000e+00 0.000000e+00
1
Step 642000
Ar -9.183115e-01 0.000000e+00 0.000000e+00
1
Step 643000
Ar -9.187808e-01 0.000000e+00 0.000000e+00
1
Step 644000
Ar -9.209710e-01 0.000000e+00 0.000000e+00
1
Step 645000
Ar -9.195502e-01 0.000000e+00 0.000000e+00
1
Step 646000
Ar -8.942278e-01 0.000000e+00 0.000000e+00
1
Step 647000
Ar -8.931327e-01 0.000000e+00 0.000000e+00
1
Step 648000
Ar -8.904170e-01 0.000000e+00 0.000000e+00
1
Step 649000
Ar -8.897293e-01 0.000000e+00 0.000000e+00
1
Step 650000