1
Step 120000
Ar 2.268283e-02 0.000000e+00 0.000000e+00
1
Step 121000
Ar -4.113190e-02 0.000000e+00 0.000000e+00
1
Step 122000
Ar 3.356246e-02 0.000000e+00 0.000000e+00
1
Step 123000
Ar -1.380951e-02 0.000000e+00 0.000000e+00
1
Step 124000
Ar 7.193883e-03 0.000000e+00 0.000000e+00
1
Step 125000
Ar -1.866458e-02 0.000000e+00 0.000000e+00
1
Step 126000
Ar -2.056042e-02 0.000000e+00 0.000000e+00
1
Step 127000
Ar 8.164809e-03 0.000000e+00 0.000000e+00
1
Step 128000
Ar -7.617483e-02 0.000000e+00 0.000000e+00
1
Step 129000
Ar -3.695826e-02 0.000000e+00 0.000000e+00
1
Step 130000
Ar -1.060305e-02 0.000000e+00 0.000000e+00
1
Step 131000
Ar 4.920467e-02 0.000000e+00 0.000000e+00
1
Step 132000
Ar 4.326212e-02 0.000000e+00 0.000000e+00
1
Step 133000
Ar 7.749652e-02 0.000000e+00 0.000000e+00
1
Step 134000
Ar -9.757987e-03 0.000000e+00 0.000000e+00
1
Step 135000
Ar 9.255587e-03 0.000000e+00 0.000000e+00
1
Step 136000
Ar 5.322877e-02 0.000000e+00 0.000000e+00
1
Step 137000
Ar 2.564342e-02 0.000000e+00 0.000000e+00
1
Step 138000
Ar 2.074063e-02 0.000000e+00 0.000000e+00
1
Step 139000
Ar 1.807378e-02 0.000000e+00 0.000000e+00
1
Step 140000
Ar -8.531934e-03 0.000000e+00 0.000000e+00
1
Step 141000
Ar 2.396329e-02 0.000000e+00 0.000000e+00
1
Step 142000
Ar -5.099995e-02 0.000000e+00 0.000000e+00
1
Step 143000
Ar 3.396266e-02 0.000000e+00 0.000000e+00
1
Step 144000
Ar 3.654537e-02 0.000000e+00 0.000000e+00
1
Step 145000
Ar -8.975788e-03 0.000000e+00 0.000000e+00
1
Step 146000
Ar -1.568848e-02 0.000000e+00 0.000000e+00
1
Step 147000
Ar -6.991952e-03 0.000000e+00 0.000000e+00
1
Step 148000
Ar -7.820612e-03 0.000000e+00 0.000000e+00
1
Step 149000
Ar -5.176182e-02 0.000000e+00 0.000000e+00
1
Step 150000
Ar 2.723907e-02 0.000000e+00 0.000000e+00
1
Step 151000
Ar -6.262542e-02 0.000000e+00 0.000000e+00
1
Step 152000
Ar 1.760929e-03 0.000000e+00 0.000000e+00
1
Step 153000
Ar 6.563319e-02 0.000000e+00 0.000000e+00
1
Step 154000
Ar -1.726614e-03 0.000000e+00 0.000000e+00
1
Step 155000
Ar 1.020086e-02 0.000000e+00 0.000000e+00
1
Step 156000
Ar -1.261341e-02 0.000000e+00 0.000000e+00
1
Step 157000
Ar -9.679027e-03 0.000000e+00 0.000000e+00
1
Step 158000
Ar -1.159380e-02 0.000000e+00 0.000000e+00
1
Step 159000
Ar 4.145304e-02 0.000000e+00 0.000000e+00
1
Step 160000
Ar 1.556767e-02 0.000000e+00 0.000000e+00
1
Step 161000
Ar -7.903133e-03 0.000000e+00 0.000000e+00
1
Step 162000
Ar -1.903031e-02 0.000000e+00 0.000000e+00
1
Step 163000
Ar 2.730346e-02 0.000000e+00 0.000000e+00
1
Step 164000
Ar -4.925397e-02 0.000000e+00 0.000000e+00
1
Step 165000
Ar 4.582836e-02 0.000000e+00 0.000000e+00
1
Step 166000
Ar -8.297308e-02 0.000000e+00 0.000000e+00
1
Step 167000
Ar -1.542477e-02 0.000000e+00 0.000000e+00
1
Step 168000
Ar -3.399744e-02 0.000000e+00 0.000000e+00
1
Step 169000
Ar 1.334190e-02 0.000000e+00 0.000000e+00
1
Step 170000
Ar -7.943962e-03 0.000000e+00 0.000000e+00
1
Step 171000
Ar -2.187881e-02 0.000000e+00 0.000000e+00
1
Step 172000
Ar -1.557687e-02 0.000000e+00 0.000000e+00
1
Step 173000
Ar -5.988866e-03 0.000000e+00 0.000000e+00
1
Step 174000
Ar 8.123105e-03 0.000000e+00 0.000000e+00
1
Step 175000
Ar 1.203069e-02 0.000000e+00 0.000000e+00
1
Step 176000
Ar 4.534904e-02 0.000000e+00 0.000000e+00
1
Step 177000
Ar -3.480376e-03 0.000000e+00 0.000000e+00
1
Step 178000
Ar 5.331506e-02 0.000000e+00 0.000000e+00
1
Step 179000
Ar 6.810048e-02 0.000000e+00 0.000000e+00
1
Step 180000
Ar -1.337642e-02 0.000000e+00 0.000000e+00
1
Step 181000
Ar 1.281854e-02 0.000000e+00 0.000000e+00
1
Step 182000
Ar -5.801402e-03 0.000000e+00 0.000000e+00
1
Step 183000
Ar 3.488643e-02 0.000000e+00 0.000000e+00
1
Step 184000
Ar -2.398736e-02 0.000000e+00 0.000000e+00
1
Step 185000
Ar 7.811813e-03 0.000000e+00 0.000000e+00
1
Step 186000
Ar -2.657619e-02 0.000000e+00 0.000000e+00
1
Step 187000
Ar -2.076228e-03 0.000000e+00 0.000000e+00
1
Step 188000
Ar 3.732624e-02 0.000000e+00 0.000000e+00
1
Step 189000
Ar -4.846782e-03 0.000000e+00 0.000000e+00
1
Step 190000
Ar 1.738527e-02 0.000000e+00 0.000000e+00
1
Step 191000
Ar -1.622189e-02 0.000000e+00 0.000000e+00
1
Step 192000
Ar -2.631417e-02 0.000000e+00 0.000000e+00
1
Step 193000
Ar -5.151192e-02 0.000000e+00 0.000000e+00
1
Step 194000
Ar 9.471819e-03 0.000000e+00 0.000000e+00
1
Step 195000
Ar 5.266270e-02 0.000000e+00 0.000000e+00
1
Step 196000
Ar -4.107344e-02 0.000000e+00 0.000000e+00
1
Step 197000
Ar -7.090253e-03 0.000000e+00 0.000000e+00
1
Step 198000
Ar 3.396466e-03 0.000000e+00 0.000000e+00
1
Step 199000
Ar -6.005315e-02 0.000000e+00 0.000000e+00
1
Step 200000
Ar -6.508407e-02 0.000000e+00 0.000000e+00
1
Step 201000
Ar 2.878765e-02 0.000000e+00 0.000000e+00
1
Step 202000
Ar -3.042401e-04 0.000000e+00 0.000000e+00
1
Step 203000
Ar -3.814390e-02 0.000000e+00 0.000000e+00
1
Step 204000
Ar -2.864388e-03 0.000000e+00 0.000000e+00
1
Step 205000
Ar -1.412282e-02 0.000000e+00 0.000000e+00
1
Step 206000
Ar -3.476077e-02 0.000000e+00 0.000000e+00
1
Step 207000
Ar 2.279702e-02 0.000000e+00 0.000000e+00
1
Step 208000
Ar 4.192034e-02 0.000000e+00 0.000000e+00
1
Step 209000
Ar 4.320834e-02 0.000000e+00 0.000000e+00
1
Step 210000
Ar -3.953611e-02 0.000000e+00 0.000000e+00
1
Step 211000
Ar 1.642077e-02 0.000000e+00 0.000000e+00
1
Step 212000
Ar 3.369395e-02 0.000000e+00 0.000000e+00
1
Step 213000
Ar 5.119620e-02 0.000000e+00 0.000000e+00
1
Step 214000
Ar -1.875416e-02 0.000000e+00 0.000000e+00
1
Step 215000
Ar -1.274483e-02 0.000000e+00 0.000000e+00
1
Step 216000
Ar 2.065898e-02 0.000000e+00 0.000000e+00
1
Step 217000
Ar -7.427422e-03 0.000000e+00 0.000000e+00
1
Step 218000
Ar 1.104305e-03 0.000000e+00 0.000000e+00
1
Step 219000
Ar -9.892195e-03 0.000000e+00 0.000000e+00
1
Step 220000
Ar -1.975300e-02 0.000000e+00 0.000000e+00
1
Step 221000
Ar -1.551412e-02 0.000000e+00 0.000000e+00
1
Step 222000
Ar -1.988355e-02 0.000000e+00 0.000000e+00
1
Step 223000
Ar 6.371552e-03 0.000000e+00 0.000000e+00
1
Step 224000
Ar 3.068731e-02 0.000000e+00 0.000000e+00
1
Step 225000
Ar -2.488799e-02 0.000000e+00 0.000000e+00
1
Step 226000
Ar -2.620713e-02 0.000000e+00 0.000000e+00
1
Step 227000
Ar 5.480859e-02 0.000000e+00 0.000000e+00
1
Step 228000
Ar 2.473481e-03 0.000000e+00 0.000000e+00
1
Step 229000
Ar 3.264969e-02 0.000000e+00 0.000000e+00
1
Step 230000
Ar -1.036775e-02 0.000000e+00 0.000000e+00
1
Step 231000
Ar 6.260714e-02 0.000000e+00 0.000000e+00
1
Step 232000
Ar -9.618170e-03 0.000000e+00 0.000000e+00
1
Step 233000
Ar -5.136260e-02 0.000000e+00 0.000000e+00
1
Step 234000
Ar -2.428110e-02 0.000000e+00 0.000000e+00
1
Step 235000
Ar -1.846874e-02 0.000000e+00 0.000000e+00
1
Step 236000
Ar -7.493611e-03 0.000000e+00 0.000000e+00
1
Step 237000
Ar -1.555919e-02 0.000000e+00 0.000000e+00
1
Step 238000
Ar 1.171901e-03 0.000000e+00 0.000000e+00
1
Step 239000
Ar 9.175553e-03 0.000000e+00 0.000000e+00
1
Step 240000
Ar 1.637767e-03 0.000000e+00 0.000000e+00
1
Step 241000
Ar 3.895450e-02 0.000000e+00 0.000000e+00
1
Step 242000
Ar -5.014652e-03 0.000000e+00 0.000000e+00
1
Step 243000
Ar -5.661981e-02 0.000000e+00 0.000000e+00
1
Step 244000
Ar -7.356283e-04 0.000000e+00 0.000000e+00
1
Step 245000
Ar -2.835289e-04 0.000000e+00 0.000000e+00
1
Step 246000
Ar 4.459456e-02 0.000000e+00 0.000000e+00
1
Step 247000
Ar -3.686440e-02 0.000000e+00 0.000000e+00
1
Step 248000
Ar -2.450947e-02 0.000000e+00 0.000000e+00
1
Step 249000
Ar 1.007551e-02 0.000000e+00 0.000000e+00
1
Step 250000
Ar -5.837177e-02 0.000000e+00 0.000000e+00
1
Step 251000
Ar -2.553079e-02 0.000000e+00 0.000000e+00
1
Step 252000
Ar 9.753309e-03 0.000000e+00 0.000000e+00
1
Step 253000
Ar -1.742439e-03 0.000000e+00 0.000000e+00
1
Step 254000
Ar 1.191818e-02 0.000000e+00 0.000000e+00
1
Step 255000
Ar 8.776733e-03 0.000000e+00 0.000000e+00
1
Step 256000
Ar -3.130642e-02 0.000000e+00 0.000000e+00
1
Step 257000
Ar -4.267141e-02 0.000000e+00 0.000000e+00
1
Step 258000
Ar -2.068906e-02 0.000000e+00 0.000000e+00
1
Step 259000
Ar 4.673321e-02 0.000000e+00 0.000000e+00
1
Step 260000
Ar 5.765286e-03 0.000000e+00 0.000000e+00
1
Step 261000
Ar 2.418039e-04 0.000000e+00 0.000000e+00
1
Step 262000
Ar -2.163601e-02 0.000000e+00 0.000000e+00
1
Step 263000
Ar -1.856406e-02 0.000000e+00 0.000000e+00
1
Step 264000
Ar 3.684080e-02 0.000000e+00 0.000000e+00
1
Step 265000
Ar 3.755483e-02 0.000000e+00 0.000000e+00
1
Step 266000
Ar -1.102858e-03 0.000000e+00 0.000000e+00
1
Step 267000
Ar -1.134943e-02 0.000000e+00 0.000000e+00
1
Step 268000
Ar -5.143883e-03 0.000000e+00 0.000000e+00
1
Step 269000
Ar 6.463464e-03 0.000000e+00 0.000000e+00
1
Step 270000
Ar 1.494941e-02 0.000000e+00 0.000000e+00
1
Step 271000
Ar -3.134674e-02 0.000000e+00 0.000000e+00
1
Step 272000
Ar -5.526802e-02 0.000000e+00 0.000000e+00
1
Step 273000
Ar -2.118114e-02 0.000000e+00 0.000000e+00
1
Step 274000
Ar 2.120319e-02 0.000000e+00 0.000000e+00
1
Step 275000
Ar -3.938272e-02 0.000000e+00 0.000000e+00
1
Step 276000
Ar -7.214164e-02 0.000000e+00 0.000000e+00
1
Step 277000
Ar 2.131401e-02 0.000000e+00 0.000000e+00
1
Step 278000
Ar 3.999257e-02 0.000000e+00 0.000000e+00
1
Step 279000
Ar -7.473159e-03 0.000000e+00 0.000000e+00
1
Step 280000
Ar -2.508939e-02 0.000000e+00 0.000000e+00
1
Step 281000
Ar 9.099216e-02 0.000000e+00 0.000000e+00
1
Step 282000
Ar -1.107067e-03 0.000000e+00 0.000000e+00
1
Step 283000
Ar 3.350914e-03 0.000000e+00 0.000000e+00
1
Step 284000
Ar 1.528266e-02 0.000000e+00 0.000000e+00
1
Step 285000
Ar -3.353932e-02 0.000000e+00 0.000000e+00
1
Step 286000
Ar -4.998609e-02 0.000000e+00 0.000000e+00
1
Step 287000
Ar 1.432626e-02 0.000000e+00 0.000000e+00
1
Step 288000
Ar -3.070522e-03 0.000000e+00 0.000000e+00
1
Step 289000
Ar -6.517554e-02 0.000000e+00 0.000000e+00
1
Step 290000
Ar -6.563390e-02 0.000000e+00 0.000000e+00
1
Step 291000
Ar 4.856235e-02 0.000000e+00 0.000000e+00
1
Step 292000
Ar -1.539897e-02 0.000000e+00 0.000000e+00
1
Step 293000
Ar 3.528116e-02 0.000000e+00 0.000000e+00
1
Step 294000
Ar -1.197921e-03 0.000000e+00 0.000000e+00
1
Step 295000
Ar -3.372348e-02 0.000000e+00 0.000000e+00
1
Step 296000
Ar -1.471820e-02 0.000000e+00 0.000000e+00
1
Step 297000
Ar -6.523124e-05 0.000000e+00 0.000000e+00
1
Step 298000
Ar 6.358753e-03 0.000000e+00 0.000000e+00
1
Step 299000
Ar -5.342088e-03 0.000000e+00 0.000000e+00
1
Step 300000
Ar -2.393534e-02 0.000000e+00 0.000000e+00
1
Step 301000
Ar -2.359831e-03 0.000000e+00 0.000000e+00
1
Step 302000
Ar 3.808035e-02 0.000000e+00 0.000000e+00
1
Step 303000
Ar 5.736396e-03 0.000000e+00 0.000000e+00
1
Step 304000
Ar 2.473079e-02 0.000000e+00 0.000000e+00
1
Step 305000
Ar -2.107612e-02 0.000000e+00 0.000000e+00
1
Step 306000
Ar -5.339924e-03 0.000000e+00 0.000000e+00
1
Step 307000
Ar -3.725718e-02 0.000000e+00 0.000000e+00
1
Step 308000
Ar 1.719930e-02 0.000000e+00 0.000000e+00
1
Step 309000
Ar 5.024047e-02 0.000000e+00 0.000000e+00
1
Step 310000
Ar -2.497358e-02 0.000000e+00 0.000000e+00
1
Step 311000
Ar -4.179461e-02 0.000000e+00 0.000000e+00
1
Step 312000
Ar 2.310675e-03 0.000000e+00 0.000000e+00
1
Step 313000
Ar 4.279176e-03 0.000000e+00 0.000000e+00
1
Step 314000
Ar -3.985024e-02 0.000000e+00 0.000000e+00
1
Step 315000
Ar -2.332327e-02 0.000000e+00 0.000000e+00
1
Step 316000
Ar -1.446096e-02 0.000000e+00 0.000000e+00
1
Step 317000
Ar 3.055278e-02 0.000000e+00 0.000000e+00
1
Step 318000
Ar -2.990100e-02 0.000000e+00 0.000000e+00
1
Step 319000
Ar -3.130355e-02 0.000000e+00 0.000000e+00
1
Step 320000
Ar 4.014927e-03 0.000000e+00 0.000000e+00
1
Step 321000
Ar 2.223957e-02 0.000000e+00 0.000000e+00
1
Step 322000
Ar -3.003471e-02 0.000000e+00 0.000000e+00
1
Step 323000
Ar 1.027109e-02 0.000000e+00 0.000000e+00
1
Step 324000
Ar -5.218752e-02 0.000000e+00 0.000000e+00
1
Step 325000
Ar -1.540565e-02 0.000000e+00 0.000000e+00
1
Step 326000
Ar -4.683772e-02 0.000000e+00 0.000000e+00
1
Step 327000
Ar 1.015742e-02 0.000000e+00 0.000000e+00
1
Step 328000
Ar -2.596985e-02 0.000000e+00 0.000000e+00
1
Step 329000
Ar 4.309539e-02 0.000000e+00 0.000000e+00
1
Step 330000
Ar 7.278520e-03 0.000000e+00 0.000000e+00
1
Step 331000
Ar -1.673771e-03 0.000000e+00 0.000000e+00
1
Step 332000
Ar 2.572524e-02 0.000000e+00 0.000000e+00
1
Step 333000
Ar -5.183460e-02 0.000000e+00 0.000000e+00
1
Step 334000
Ar -4.057488e-02 0.000000e+00 0.000000e+00
1
Step 335000
Ar -2.156948e-02 0.000000e+00 0.000000e+00
1
Step 336000
Ar 3.145099e-02 0.000000e+00 0.000000e+00
1
Step 337000
Ar 2.295673e-02 0.000000e+00 0.000000e+00
1
Step 338000
Ar 1.514955e-02 0.000000e+00 0.000000e+00
1
Step 339000
Ar -3.858033e-02 0.000000e+00 0.000000e+00
1
Step 340000
Ar 9.898426e-03 0.000000e+00 0.000000e+00
1
Step 341000
Ar -1.297511e-02 0.000000e+00 0.000000e+00
1
Step 342000
Ar 5.359312e-03 0.000000e+00 0.000000e+00
1
Step 343000
Ar -3.519765e-02 0.000000e+00 0.000000e+00
1
Step 344000
Ar -3.321233e-02 0.000000e+00 0.000000e+00
1
Step 345000
Ar -7.882841e-03 0.000000e+00 0.000000e+00
1
Step 346000
Ar -3.232859e-02 0.000000e+00 0.000000e+00
1
Step 347000
Ar 4.107973e-03 0.000000e+00 0.000000e+00
1
Step 348000
Ar 5.795941e-02 0.000000e+00 0.000000e+00
1
Step 349000
Ar 3.016252e-02 0.000000e+00 0.000000e+00
1
Step 350000
Ar -2.700216e-02 0.000000e+00 0.000000e+00
1
Step 351000
Ar 3.210071e-02 0.000000e+00 0.000000e+00
1
Step 352000
Ar 1.616464e-02 0.000000e+00 0.000000e+00
1
Step 353000
Ar 1.425556e-02 0.000000e+00 0.000000e+00
1
Step 354000
Ar 2.063193e-02 0.000000e+00 0.000000e+00
1
Step 355000
Ar 5.422685e-04 0.000000e+00 0.000000e+00
1
Step 356000
Ar -1.993507e-02 0.000000e+00 0.000000e+00
1
Step 357000
Ar -5.138708e-04 0.000000e+00 0.000000e+00
1
Step 358000
Ar 1.112915e-02 0.000000e+00 0.000000e+00
1
Step 359000
Ar -2.727813e-02 0.000000e+00 0.000000e+00
1
Step 360000
Ar -2.436324e-03 0.000000e+00 0.000000e+00
1
Step 361000
Ar -1.838441e-04 0.000000e+00 0.000000e+00
1
Step 362000
Ar -4.625543e-02 0.000000e+00 0.000000e+00
1
Step 363000
Ar -4.001907e-02 0.000000e+00 0.000000e+00
1
Step 364000
Ar 6.636945e-02 0.000000e+00 0.000000e+00
1
Step 365000
Ar 3.838368e-03 0.000000e+00 0.000000e+00
1
Step 366000
Ar 5.824053e-02 0.000000e+00 0.000000e+00
1
Step 367000
Ar -3.258930e-02 0.000000e+00 0.000000e+00
1
Step 368000
Ar -4.751134e-03 0.000000e+00 0.000000e+00
1
Step 369000
Ar 3.435431e-02 0.000000e+00 0.000000e+00
1
Step 370000
Ar 1.231272e-02 0.000000e+00 0.000000e+00
1
Step 371000
Ar 6.307024e-02 0.000000e+00 0.000000e+00
1
Step 372000
Ar 4.755807e-02 0.000000e+00 0.000000e+00
1
Step 373000
Ar 1.244192e-02 0.000000e+00 0.000000e+00
1
Step 374000
Ar 7.235430e-03 0.000000e+00 0.000000e+00
1
Step 375000
Ar -4.564768e-02 0.000000e+00 0.000000e+00
1
Step 376000
Ar -8.744445e-02 0.000000e+00 0.000000e+00
1
Step 377000
Ar -6.113744e-02 0.000000e+00 0.000000e+00
1
Step 378000
Ar -7.195391e-02 0.000000e+00 0.000000e+00
1
Step 379000
Ar -1.816635e-02 0.000000e+00 0.000000e+00
1
Step 380000
Ar -9.105240e-03 0.000000e+00 0.000000e+00
1
Step 381000
Ar 3.469576e-02 0.000000e+00 0.000000e+00
1
Step 382000
Ar -2.148550e-02 0.000000e+00 0.000000e+00
1
Step 383000
Ar 1.744440e-02 0.000000e+00 0.000000e+00
1
Step 384000
Ar -3.337541e-02 0.000000e+00 0.000000e+00
1
Step 385000
Ar 1.862035e-02 0.000000e+00 0.000000e+00
1
Step 386000
Ar -4.981730e-02 0.000000e+00 0.000000e+00
1
Step 387000
Ar -1.483619e-02 0.000000e+00 0.000000e+00
1
Step 388000
Ar -5.270473e-03 0.000000e+00 0.000000e+00
1
Step 389000
Ar 3.257033e-02 0.000000e+00 0.000000e+00
1
Step 390000
Ar 7.052444e-03 0.000000e+00 0.000000e+00
1
Step 391000
Ar -5.755569e-02 0.000000e+00 0.000000e+00
1
Step 392000
Ar 3.010370e-02 0.000000e+00 0.000000e+00
1
Step 393000
Ar -1.759594e-02 0.000000e+00 0.000000e+00
1
Step 394000
Ar 2.264100e-02 0.000000e+00 0.000000e+00
1
Step 395000
Ar 6.587869e-03 0.000000e+00 0.000000e+00
1
Step 396000
Ar 5.322046e-02 0.000000e+00 0.000000e+00
1
Step 397000
Ar -1.836265e-02 0.000000e+00 0.000000e+00
1
Step 398000
Ar 5.133780e-02 0.000000e+00 0.000000e+00
1
Step 399000
Ar 1.610414e-02 0.000000e+00 0.000000e+00
1
Step 400000
Ar 1.433500e-02 0.000000e+00 0.000000e+00
1
Step 401000
Ar 1.319457e-02 0.000000e+00 0.000000e+00
1
Step 402000
Ar -1.913327e-02 0.000000e+00 0.000000e+00
1
Step 403000
Ar 2.331662e-02 0.000000e+00 0.000000e+00
1
Step 404000
Ar -8.913955e-03 0.000000e+00 0.000000e+00
1
Step 405000
Ar 6.190610e-02 0.000000e+00 0.000000e+00
1
Step 406000
Ar -4.793875e-02 0.000000e+00 0.000000e+00
1
Step 407000
Ar 4.901206e-02 0.000000e+00 0.000000e+00
1
Step 408000
Ar 3.220227e-02 0.000000e+00 0.000000e+00
1
Step 409000
Ar -1.349917e-02 0.000000e+00 0.000000e+00
1
Step 410000
Ar -4.405839e-02 0.000000e+00 0.000000e+00
1
Step 411000
Ar 9.285671e-03 0.000000e+00 0.000000e+00
1
Step 412000
Ar -5.304372e-02 0.000000e+00 0.000000e+00
1
Step 413000
Ar -1.077745e-04 0.000000e+00 0.000000e+00
1
Step 414000
Ar 3.159493e-02 0.000000e+00 0.000000e+00
1
Step 415000
Ar 8.246564e-03 0.000000e+00 0.000000e+00
1
Step 416000
Ar 6.978148e-02 0.000000e+00 0.000000e+00
1
Step 417000
Ar -1.389450e-02 0.000000e+00 0.000000e+00
1
Step 418000
Ar -1.193659e-02 0.000000e+00 0.000000e+00
1
Step 419000
Ar 4.520469e-02 0.000000e+00 0.000000e+00
1
Step 420000
Ar -1.847420e-02 0.000000e+00 0.000000e+00
1
Step 421000
Ar 1.980443e-02 0.000000e+00 0.000000e+00
1
Step 422000
Ar -7.957613e-02 0.000000e+00 0.000000e+00
1
Step 423000
Ar -2.531044e-02 0.000000e+00 0.000000e+00
1
Step 424000
Ar -4.035593e-02 0.000000e+00 0.000000e+00
1
Step 425000
Ar -3.380689e-02 0.000000e+00 0.000000e+00
1
Step 426000
Ar -3.461718e-02 0.000000e+00 0.000000e+00
1
Step 427000
Ar 3.560917e-02 0.000000e+00 0.000000e+00
1
Step 428000
Ar 1.398395e-02 0.000000e+00 0.000000e+00
1
Step 429000
Ar 9.361657e-03 0.000000e+00 0.000000e+00
1
Step 430000
Ar 5.483756e-02 0.000000e+00 0.000000e+00
1
Step 431000
Ar -2.553101e-02 0.000000e+00 0.000000e+00
1
Step 432000
Ar -4.086888e-03 0.000000e+00 0.000000e+00
1
Step 433000
Ar 5.241789e-02 0.000000e+00 0.000000e+00
1
Step 434000
Ar -1.104142e-02 0.000000e+00 0.000000e+00
1
Step 435000
Ar -4.999914e-02 0.000000e+00 0.000000e+00
1
Step 436000
Ar -6.798881e-03 0.000000e+00 0.000000e+00
1
Step 437000
Ar 3.801440e-02 0.000000e+00 0.000000e+00
1
Step 438000
Ar -1.200029e-02 0.000000e+00 0.000000e+00
1
Step 439000
Ar 6.918775e-03 0.000000e+00 0.000000e+00
1
Step 440000
Ar -3.947830e-03 0.000000e+00 0.000000e+00
1
Step 441000
Ar 3.902157e-02 0.000000e+00 0.000000e+00
1
Step 442000
Ar 1.630654e-02 0.000000e+00 0.000000e+00
1
Step 443000
Ar -3.365164e-02 0.000000e+00 0.000000e+00
1
Step 444000
Ar -6.377751e-03 0.000000e+00 0.000000e+00
1
Step 445000
Ar 1.287849e-02 0.000000e+00 0.000000e+00
1
Step 446000
Ar 8.302733e-03 0.000000e+00 0.000000e+00
1
Step 447000
Ar -3.248520e-02 0.000000e+00 0.000000e+00
1
Step 448000
Ar -3.086202e-02 0.000000e+00 0.000000e+00
1
Step 449000
Ar -6.965751e-02 0.000000e+00 0.000000e+00
1
Step 450000
Ar 2.846298e-02 0.000000e+00 0.000000e+00
1
Step 451000
Ar -6.985926e-02 0.000000e+00 0.000000e+00
1
Step 452000
Ar 6.976806e-02 0.000000e+00 0.000000e+00
1
Step 453000
Ar -2.223581e-02 0.000000e+00 0.000000e+00
1
Step 454000
Ar -5.193001e-02 0.000000e+00 0.000000e+00
1
Step 455000
Ar -1.074929e-02 0.000000e+00 0.000000e+00
1
Step 456000
Ar 4.643960e-02 0.000000e+00 0.000000e+00
1
Step 457000
Ar -4.473028e-02 0.000000e+00 0.000000e+00
1
Step 458000
Ar 1.976784e-02 0.000000e+00 0.000000e+00
1
Step 459000
Ar -2.910524e-02 0.000000e+00 0.000000e+00
1
Step 460000
Ar 2.434805e-03 0.000000e+00 0.000000e+00
1
Step 461000
Ar 8.532281e-03 0.000000e+00 0.000000e+00
1
Step 462000
Ar -2.024466e-02 0.000000e+00 0.000000e+00
1
Step 463000
Ar -9.374268e-02 0.000000e+00 0.000000e+00
1
Step 464000
Ar -8.871238e-03 0.000000e+00 0.000000e+00
1
Step 465000
Ar 2.868812e-03 0.000000e+00 0.000000e+00
1
Step 466000
Ar -8.885849e-02 0.000000e+00 0.000000e+00
1
Step 467000
Ar -1.344798e-02 0.000000e+00 0.000000e+00
1
Step 468000
Ar -4.017937e-02 0.000000e+00 0.000000e+00
1
Step 469000
Ar 1.827103e-02 0.000000e+00 0.000000e+00
1
Step 470000
Ar -3.282997e-02 0.000000e+00 0.000000e+00
1
Step 471000
Ar 1.464496e-03 0.000000e+00 0.000000e+00
1
Step 472000
Ar 4.405428e-02 0.000000e+00 0.000000e+00
1
Step 473000
Ar -1.778930e-03 0.000000e+00 0.000000e+00
1
Step 474000
Ar -4.028689e-02 0.000000e+00 0.000000e+00
1
Step 475000
Ar 6.744678e-03 0.000000e+00 0.000000e+00
1
Step 476000
Ar -3.597980e-03 0.000000e+00 0.000000e+00
1
Step 477000
Ar -9.119045e-03 0.000000e+00 0.000000e+00
1
Step 478000
Ar -5.722811e-02 0.000000e+00 0.000000e+00
1
Step 479000
Ar 1.642530e-02 0.000000e+00 0.000000e+00
1
Step 480000
Ar 3.019992e-02 0.000000e+00 0.000000e+00
1
Step 481000
Ar -1.797074e-02 0.000000e+00 0.000000e+00
1
Step 482000
Ar 1.127010e-02 0.000000e+00 0.000000e+00
1
Step 483000
Ar -4.247181e-02 0.000000e+00 0.000000e+00
1
Step 484000
Ar 5.928434e-02 0.000000e+00 0.000000e+00
1
Step 485000
Ar 2.400904e-02 0.000000e+00 0.000000e+00
1
Step 486000
Ar 7.912426e-03 0.000000e+00 0.000000e+00
1
Step 487000
Ar 5.858814e-02 0.000000e+00 0.000000e+00
1
Step 488000
Ar 2.070524e-02 0.000000e+00 0.000000e+00
1
Step 489000
Ar 1.620833e-02 0.000000e+00 0.000000e+00
1
Step 490000
Ar -2.701720e-02 0.000000e+00 0.000000e+00
1
Step 491000
Ar 2.592195e-02 0.000000e+00 0.000000e+00
1
Step 492000
Ar 4.997341e-02 0.000000e+00 0.000000e+00
1
Step 493000
Ar 4.494819e-02 0.000000e+00 0.000000e+00
1
Step 494000
Ar -1.715675e-02 0.000000e+00 0.000000e+00
1
Step 495000
Ar 3.201911e-02 0.000000e+00 0.000000e+00
1
Step 496000
Ar -9.371584e-03 0.000000e+00 0.000000e+00
1
Step 497000
Ar -3.656003e-02 0.000000e+00 0.000000e+00
1
Step 498000
Ar -1.852888e-02 0.000000e+00 0.000000e+00
1
Step 499000
Ar -2.576626e-02 0.000000e+00 0.000000e+00
