1
Step 120000
Ar 9.640590e-01 0.000000e+00 0.000000e+00
1
Step 121000
Ar 1.130912e+00 0.000000e+00 0.000000e+00
1
Step 122000
Ar 1.145354e+00 0.000000e+00 0.000000e+00
1
Step 123000
Ar 1.022585e+00 0.000000e+00 0.000000e+00
1
Step 124000
Ar 1.152960e+00 0.000000e+00 0.000000e+00
1
Step 125000
Ar 9.931478e-01 0.000000e+00 0.000000e+00
1
Step 126000
Ar 8.892065e-01 0.000000e+00 0.000000e+00
1
Step 127000
Ar 9.182034e-01 0.000000e+00 0.000000e+00
1
Step 128000
Ar 9.226216e-01 0.000000e+00 0.000000e+00
1
Step 129000
Ar 1.240398e+00 0.000000e+00 0.000000e+00
1
Step 130000
Ar 9.996295e-01 0.000000e+00 0.000000e+00
1
Step 131000
Ar 1.116863e+00 0.000000e+00 0.000000e+00
1
Step 132000
Ar 1.041574e+00 0.000000e+00 0.000000e+00
1
Step 133000
Ar 1.047502e+00 0.000000e+00 0.000000e+00
1
Step 134000
Ar 1.229316e+00 0.000000e+00 0.000000e+00
1
Step 135000
Ar 1.282278e+00 0.000000e+00 0.000000e+00
1
Step 136000
Ar 1.021166e+00 0.000000e+00 0.000000e+00
1
Step 137000
Ar 1.042247e+00 0.000000e+00 0.000000e+00
1
Step 138000
Ar 1.073517e+00 0.000000e+00 0.000000e+00
1
Step 139000
Ar 1.057753e+00 0.000000e+00 0.000000e+00
1
Step 140000
Ar 1.075677e+00 0.000000e+00 0.000000e+00
1
Step 141000
Ar 1.188287e+00 0.000000e+00 0.000000e+00
1
Step 142000
Ar 1.043007e+00 0.000000e+00 0.000000e+00
1
Step 143000
Ar 1.141247e+00 0.000000e+00 0.000000e+00
1
Step 144000
Ar 1.108695e+00 0.000000e+00 0.000000e+00
1
Step 145000
Ar 1.117210e+00 0.000000e+00 0.000000e+00
1
Step 146000
Ar 1.182052e+00 0.000000e+00 0.000000e+00
1
Step 147000
Ar 1.131016e+00 0.000000e+00 0.000000e+00
1
Step 148000
Ar 1.049309e+00 0.000000e+00 0.000000e+00
1
Step 149000
Ar 1.061686e+00 0.000000e+00 0.000000e+00
1
Step 150000
Ar 1.061520e+00 0.000000e+00 0.000000e+00
1
Step 151000
Ar 1.040088e+00 0.000000e+00 0.000000e+00
1
Step 152000
Ar 8.659520e-01 0.000000e+00 0.000000e+00
1
Step 153000
Ar 8.987236e-01 0.000000e+00 0.000000e+00
1
Step 154000
Ar 8.867098e-01 0.000000e+00 0.000000e+00
1
Step 155000
Ar 9.194787e-01 0.000000e+00 0.000000e+00
1
Step 156000
Ar 9.818146e-01 0.000000e+00 0.000000e+00
1
Step 157000
Ar 9.493975e-01 0.000000e+00 0.000000e+00
1
Step 158000
Ar 9.742455e-01 0.000000e+00 0.000000e+00
1
Step 159000
Ar 9.639111e-01 0.000000e+00 0.000000e+00
1
Step 160000
Ar 8.735893e-01 0.000000e+00 0.000000e+00
1
Step 161000
Ar 8.978980e-01 0.000000e+00 0.000000e+00
1
Step 162000
Ar 8.905648e-01 0.000000e+00 0.000000e+00
1
Step 163000
Ar 9.172742e-01 0.000000e+00 0.000000e+00
1
Step 164000
Ar 9.183587e-01 0.000000e+00 0.000000e+00
1
Step 165000
Ar 9.186741e-01 0.000000e+00 0.000000e+00
1
Step 166000
Ar 8.814337e-01 0.000000e+00 0.000000e+00
1
Step 167000
Ar 9.022723e-01 0.000000e+00 0.000000e+00
1
Step 168000
Ar 9.244018e-01 0.000000e+00 0.000000e+00
1
Step 169000
Ar 9.180639e-01 0.000000e+00 0.000000e+00
1
Step 170000
Ar 8.786266e-01 0.000000e+00 0.000000e+00
1
Step 171000
Ar 9.151345e-01 0.000000e+00 0.000000e+00
1
Step 172000
Ar 9.176408e-01 0.000000e+00 0.000000e+00
1
Step 173000
Ar 9.147384e-01 0.000000e+00 0.000000e+00
1
Step 174000
Ar 9.174301e-01 0.000000e+00 0.000000e+00
1
Step 175000
Ar 9.457379e-01 0.000000e+00 0.000000e+00
1
Step 176000
Ar 9.529227e-01 0.000000e+00 0.000000e+00
1
Step 177000
Ar 1.023971e+00 0.000000e+00 0.000000e+00
1
Step 178000
Ar 1.036625e+00 0.000000e+00 0.000000e+00
1
Step 179000
Ar 1.043846e+00 0.000000e+00 0.000000e+00
1
Step 180000
Ar 1.071459e+00 0.000000e+00 0.000000e+00
1
Step 181000
Ar 1.039880e+00 0.000000e+00 0.000000e+00
1
Step 182000
Ar 1.028478e+00 0.000000e+00 0.000000e+00
1
Step 183000
Ar 1.123525e+00 0.000000e+00 0.000000e+00
1
Step 184000
Ar 1.138896e+00 0.000000e+00 0.000000e+00
1
Step 185000
Ar 1.087478e+00 0.000000e+00 0.000000e+00
1
Step 186000
Ar 8.549418e-01 0.000000e+00 0.000000e+00
1
Step 187000
Ar 8.760953e-01 0.000000e+00 0.000000e+00
1
Step 188000
Ar 8.734855e-01 0.000000e+00 0.000000e+00
1
Step 189000
Ar 8.707951e-01 0.000000e+00 0.000000e+00
1
Step 190000
Ar 6.376205e-01 0.000000e+00 0.000000e+00
1
Step 191000
Ar 7.635131e-01 0.000000e+00 0.000000e+00
1
Step 192000
Ar 7.042777e-01 0.000000e+00 0.000000e+00
1
Step 193000
Ar 7.517277e-01 0.000000e+00 0.000000e+00
1
Step 194000
Ar 8.212276e-01 0.000000e+00 0.000000e+00
1
Step 195000
Ar 7.824994e-01 0.000000e+00 0.000000e+00
1
Step 196000
Ar 7.697861e-01 0.000000e+00 0.000000e+00
1
Step 197000
Ar 7.835654e-01 0.000000e+00 0.000000e+00
1
Step 198000
Ar 6.656350e-01 0.000000e+00 0.000000e+00
1
Step 199000
Ar 7.422455e-01 0.000000e+00 0.000000e+00
1
Step 200000
Ar 7.690804e-01 0.000000e+00 0.000000e+00
1
Step 201000
Ar 7.090178e-01 0.000000e+00 0.000000e+00
1
Step 202000
Ar 7.110315e-01 0.000000e+00 0.000000e+00
1
Step 203000
Ar 6.487226e-01 0.000000e+00 0.000000e+00
1
Step 204000
Ar 5.256215e-01 0.000000e+00 0.000000e+00
1
Step 205000
Ar 5.825384e-01 0.000000e+00 0.000000e+00
1
Step 206000
Ar 7.085725e-01 0.000000e+00 0.000000e+00
1
Step 207000
Ar 7.022246e-01 0.000000e+00 0.000000e+00
1
Step 208000
Ar 7.003824e-01 0.000000e+00 0.000000e+00
1
Step 209000
Ar 6.936032e-01 0.000000e+00 0.000000e+00
1
Step 210000
Ar 7.123843e-01 0.000000e+00 0.000000e+00
1
Step 211000
Ar 7.046305e-01 0.000000e+00 0.000000e+00
1
Step 212000
Ar 7.095344e-01 0.000000e+00 0.000000e+00
1
Step 213000
Ar 7.019144e-01 0.000000e+00 0.000000e+00
1
Step 214000
Ar 6.180203e-01 0.000000e+00 0.000000e+00
1
Step 215000
Ar 5.543563e-01 0.000000e+00 0.000000e+00
1
Step 216000
Ar 7.176185e-01 0.000000e+00 0.000000e+00
1
Step 217000
Ar 7.089684e-01 0.000000e+00 0.000000e+00
1
Step 218000
Ar 7.108530e-01 0.000000e+00 0.000000e+00
1
Step 219000
Ar 7.133964e-01 0.000000e+00 0.000000e+00
1
Step 220000
Ar 7.186186e-01 0.000000e+00 0.000000e+00
1
Step 221000
Ar 7.133746e-01 0.000000e+00 0.000000e+00
1
Step 222000
Ar 6.783493e-01 0.000000e+00 0.000000e+00
1
Step 223000
Ar 7.142873e-01 0.000000e+00 0.000000e+00
1
Step 224000
Ar 7.146782e-01 0.000000e+00 0.000000e+00
1
Step 225000
Ar 7.199757e-01 0.000000e+00 0.000000e+00
1
Step 226000
Ar 7.163073e-01 0.000000e+00 0.000000e+00
1
Step 227000
Ar 7.137988e-01 0.000000e+00 0.000000e+00
1
Step 228000
Ar 6.678889e-01 0.000000e+00 0.000000e+00
1
Step 229000
Ar 6.510480e-01 0.000000e+00 0.000000e+00
1
Step 230000
Ar 5.453347e-01 0.000000e+00 0.000000e+00
1
Step 231000
Ar 6.559571e-01 0.000000e+00 0.000000e+00
1
Step 232000
Ar 6.456928e-01 0.000000e+00 0.000000e+00
1
Step 233000
Ar 6.374277e-01 0.000000e+00 0.000000e+00
1
Step 234000
Ar 6.353429e-01 0.000000e+00 0.000000e+00
1
Step 235000
Ar 5.960155e-01 0.000000e+00 0.000000e+00
1
Step 236000
Ar 6.188504e-01 0.000000e+00 0.000000e+00
1
Step 237000
Ar 6.717654e-01 0.000000e+00 0.000000e+00
1
Step 238000
Ar 6.394876e-01 0.000000e+00 0.000000e+00
1
Step 239000
Ar 6.635720e-01 0.000000e+00 0.000000e+00
1
Step 240000
Ar 6.620312e-01 0.000000e+00 0.000000e+00
1
Step 241000
Ar 6.535988e-01 0.000000e+00 0.000000e+00
1
Step 242000
Ar 6.386237e-01 0.000000e+00 0.000000e+00
1
Step 243000
Ar 6.463923e-01 0.000000e+00 0.000000e+00
1
Step 244000
Ar 5.969495e-01 0.000000e+00 0.000000e+00
1
Step 245000
Ar 7.086708e-01 0.000000e+00 0.000000e+00
1
Step 246000
Ar 7.077069e-01 0.000000e+00 0.000000e+00
1
Step 247000
Ar 7.127593e-01 0.000000e+00 0.000000e+00
1
Step 248000
Ar 6.227638e-01 0.000000e+00 0.000000e+00
1
Step 249000
Ar 6.333741e-01 0.000000e+00 0.000000e+00
1
Step 250000
Ar 6.617194e-01 0.000000e+00 0.000000e+00
1
Step 251000
Ar 6.638280e-01 0.000000e+00 0.000000e+00
1
Step 252000
Ar 6.257821e-01 0.000000e+00 0.000000e+00
1
Step 253000
Ar 6.218143e-01 0.000000e+00 0.000000e+00
1
Step 254000
Ar 5.510805e-01 0.000000e+00 0.000000e+00
1
Step 255000
Ar -1.144941e+00 0.000000e+00 0.000000e+00
1
Step 256000
Ar -8.654915e-01 0.000000e+00 0.000000e+00
1
Step 257000
Ar -8.642336e-01 0.000000e+00 0.000000e+00
1
Step 258000
Ar -8.827544e-01 0.000000e+00 0.000000e+00
1
Step 259000
Ar -1.137360e+00 0.000000e+00 0.000000e+00
1
Step 260000
Ar -7.254979e-01 0.000000e+00 0.000000e+00
1
Step 261000
Ar -8.165672e-01 0.000000e+00 0.000000e+00
1
Step 262000
Ar -1.171845e+00 0.000000e+00 0.000000e+00
1
Step 263000
Ar -8.503490e-01 0.000000e+00 0.000000e+00
1
Step 264000
Ar -9.743294e-01 0.000000e+00 0.000000e+00
1
Step 265000
Ar -7.175019e-01 0.000000e+00 0.000000e+00
1
Step 266000
Ar -9.194315e-01 0.000000e+00 0.000000e+00
1
Step 267000
Ar -9.399635e-01 0.000000e+00 0.000000e+00
1
Step 268000
Ar -1.163970e+00 0.000000e+00 0.000000e+00
1
Step 269000
Ar -1.143148e+00 0.000000e+00 0.000000e+00
1
Step 270000
Ar -1.028673e+00 0.000000e+00 0.000000e+00
1
Step 271000
Ar -1.056721e+00 0.000000e+00 0.000000e+00
1
Step 272000
Ar -1.125338e+00 0.000000e+00 0.000000e+00
1
Step 273000
Ar -1.060915e+00 0.000000e+00 0.000000e+00
1
Step 274000
Ar -1.083000e+00 0.000000e+00 0.000000e+00
1
Step 275000
Ar -1.151570e+00 0.000000e+00 0.000000e+00
1
Step 276000
Ar -1.133283e+00 0.000000e+00 0.000000e+00
1
Step 277000
Ar -1.133730e+00 0.000000e+00 0.000000e+00
1
Step 278000
Ar -1.144719e+00 0.000000e+00 0.000000e+00
1
Step 279000
Ar -1.056600e+00 0.000000e+00 0.000000e+00
1
Step 280000
Ar -9.677885e-01 0.000000e+00 0.000000e+00
1
Step 281000
Ar -8.631881e-01 0.000000e+00 0.000000e+00
1
Step 282000
Ar -8.709393e-01 0.000000e+00 0.000000e+00
1
Step 283000
Ar -7.713653e-01 0.000000e+00 0.000000e+00
1
Step 284000
Ar -9.058777e-01 0.000000e+00 0.000000e+00
1
Step 285000
Ar -7.319971e-01 0.000000e+00 0.000000e+00
1
Step 286000
Ar -7.426398e-01 0.000000e+00 0.000000e+00
1
Step 287000
Ar -8.186845e-01 0.000000e+00 0.000000e+00
1
Step 288000
Ar -6.454752e-01 0.000000e+00 0.000000e+00
1
Step 289000
Ar -8.565470e-01 0.000000e+00 0.000000e+00
1
Step 290000
Ar -8.269538e-01 0.000000e+00 0.000000e+00
1
Step 291000
Ar -9.006468e-01 0.000000e+00 0.000000e+00
1
Step 292000
Ar -9.365980e-01 0.000000e+00 0.000000e+00
1
Step 293000
Ar -9.052509e-01 0.000000e+00 0.000000e+00
1
Step 294000
Ar -9.176740e-01 0.000000e+00 0.000000e+00
1
Step 295000
Ar -8.961960e-01 0.000000e+00 0.000000e+00
1
Step 296000
Ar -9.300316e-01 0.000000e+00 0.000000e+00
1
Step 297000
Ar -7.364507e-01 0.000000e+00 0.000000e+00
1
Step 298000
Ar -7.748529e-01 0.000000e+00 0.000000e+00
1
Step 299000
Ar -7.711129e-01 0.000000e+00 0.000000e+00
1
Step 300000
Ar -7.881735e-01 0.000000e+00 0.000000e+00
1
Step 301000
Ar -8.177326e-01 0.000000e+00 0.000000e+00
1
Step 302000
Ar -7.292005e-01 0.000000e+00 0.000000e+00
1
Step 303000
Ar -1.037786e+00 0.000000e+00 0.000000e+00
1
Step 304000
Ar -1.030934e+00 0.000000e+00 0.000000e+00
1
Step 305000
Ar -1.028174e+00 0.000000e+00 0.000000e+00
1
Step 306000
Ar -9.571676e-01 0.000000e+00 0.000000e+00
1
Step 307000
Ar -9.674242e-01 0.000000e+00 0.000000e+00
1
Step 308000
Ar -9.623081e-01 0.000000e+00 0.000000e+00
1
Step 309000
Ar -1.008321e+00 0.000000e+00 0.000000e+00
1
Step 310000
Ar -1.100066e+00 0.000000e+00 0.000000e+00
1
Step 311000
Ar -1.101886e+00 0.000000e+00 0.000000e+00
1
Step 312000
Ar -1.098313e+00 0.000000e+00 0.000000e+00
1
Step 313000
Ar -1.085193e+00 0.000000e+00 0.000000e+00
1
Step 314000
Ar -1.082821e+00 0.000000e+00 0.000000e+00
1
Step 315000
Ar -1.133140e+00 0.000000e+00 0.000000e+00
1
Step 316000
Ar -1.131394e+00 0.000000e+00 0.000000e+00
1
Step 317000
Ar -1.158258e+00 0.000000e+00 0.000000e+00
1
Step 318000
Ar -1.122926e+00 0.000000e+00 0.000000e+00
1
Step 319000
Ar -1.129330e+00 0.000000e+00 0.000000e+00
1
Step 320000
Ar -1.048875e+00 0.000000e+00 0.000000e+00
1
Step 321000
Ar -9.786698e-01 0.000000e+00 0.000000e+00
1
Step 322000
Ar -9.809084e-01 0.000000e+00 0.000000e+00
1
Step 323000
Ar -9.645785e-01 0.000000e+00 0.000000e+00
1
Step 324000
Ar -9.877651e-01 0.000000e+00 0.000000e+00
1
Step 325000
Ar -9.843034e-01 0.000000e+00 0.000000e+00
1
Step 326000
Ar -9.856668e-01 0.000000e+00 0.000000e+00
1
Step 327000
Ar -1.084157e+00 0.000000e+00 0.000000e+00
1
Step 328000
Ar -1.056567e+00 0.000000e+00 0.000000e+00
1
Step 329000
Ar -1.060339e+00 0.000000e+00 0.000000e+00
1
Step 330000
Ar -1.059221e+00 0.000000e+00 0.000000e+00
1
Step 331000
Ar -1.061618e+00 0.000000e+00 0.000000e+00
1
Step 332000
Ar -1.125613e+00 0.000000e+00 0.000000e+00
1
Step 333000
Ar -1.143375e+00 0.000000e+00 0.000000e+00
1
Step 334000
Ar -1.129959e+00 0.000000e+00 0.000000e+00
1
Step 335000
Ar -1.085151e+00 0.000000e+00 0.000000e+00
1
Step 336000
Ar -1.083216e+00 0.000000e+00 0.000000e+00
1
Step 337000
Ar -9.163518e-01 0.000000e+00 0.000000e+00
1
Step 338000
Ar -9.124859e-01 0.000000e+00 0.000000e+00
1
Step 339000
Ar -9.648827e-01 0.000000e+00 0.000000e+00
1
Step 340000
Ar -9.682220e-01 0.000000e+00 0.000000e+00
1
Step 341000
Ar -9.653453e-01 0.000000e+00 0.000000e+00
1
Step 342000
Ar -8.990490e-01 0.000000e+00 0.000000e+00
1
Step 343000
Ar -9.899315e-01 0.000000e+00 0.000000e+00
1
Step 344000
Ar -9.238628e-01 0.000000e+00 0.000000e+00
1
Step 345000
Ar -1.184735e+00 0.000000e+00 0.000000e+00
1
Step 346000
Ar -1.173950e+00 0.000000e+00 0.000000e+00
1
Step 347000
Ar -1.175704e+00 0.000000e+00 0.000000e+00
1
Step 348000
Ar -1.184018e+00 0.000000e+00 0.000000e+00
1
Step 349000
Ar -1.138923e+00 0.000000e+00 0.000000e+00
1
Step 350000
Ar -1.127813e+00 0.000000e+00 0.000000e+00
1
Step 351000
Ar -1.167903e+00 0.000000e+00 0.000000e+00
1
Step 352000
Ar -1.180226e+00 0.000000e+00 0.000000e+00
1
Step 353000
Ar -1.173419e+00 0.000000e+00 0.000000e+00
1
Step 354000
Ar -1.167196e+00 0.000000e+00 0.000000e+00
1
Step 355000
Ar -1.132193e+00 0.000000e+00 0.000000e+00
1
Step 356000
Ar -1.140285e+00 0.000000e+00 0.000000e+00
1
Step 357000
Ar -1.053330e+00 0.000000e+00 0.000000e+00
1
Step 358000
Ar -8.139953e-01 0.000000e+00 0.000000e+00
1
Step 359000
Ar -7.429507e-01 0.000000e+00 0.000000e+00
1
Step 360000
Ar -7.827573e-01 0.000000e+00 0.000000e+00
1
Step 361000
Ar -8.395520e-01 0.000000e+00 0.000000e+00
1
Step 362000
Ar -7.840603e-01 0.000000e+00 0.000000e+00
1
Step 363000
Ar -8.438772e-01 0.000000e+00 0.000000e+00
1
Step 364000
Ar -7.843297e-01 0.000000e+00 0.000000e+00
1
Step 365000
Ar -7.223227e-01 0.000000e+00 0.000000e+00
1
Step 366000
Ar -5.637945e-01 0.000000e+00 0.000000e+00
1
Step 367000
Ar -6.136161e-01 0.000000e+00 0.000000e+00
1
Step 368000
Ar -8.014808e-01 0.000000e+00 0.000000e+00
1
Step 369000
Ar -7.191497e-01 0.000000e+00 0.000000e+00
1
Step 370000
Ar -7.977297e-01 0.000000e+00 0.000000e+00
1
Step 371000
Ar -7.913608e-01 0.000000e+00 0.000000e+00
1
Step 372000
Ar -8.177128e-01 0.000000e+00 0.000000e+00
1
Step 373000
Ar -7.690568e-01 0.000000e+00 0.000000e+00
1
Step 374000
Ar -8.155233e-01 0.000000e+00 0.000000e+00
1
Step 375000
Ar -8.467349e-01 0.000000e+00 0.000000e+00
1
Step 376000
Ar -8.409435e-01 0.000000e+00 0.000000e+00
1
Step 377000
Ar -8.154469e-01 0.000000e+00 0.000000e+00
1
Step 378000
Ar -8.450697e-01 0.000000e+00 0.000000e+00
1
Step 379000
Ar -8.332669e-01 0.000000e+00 0.000000e+00
1
Step 380000
Ar -7.952104e-01 0.000000e+00 0.000000e+00
1
Step 381000
Ar -8.331031e-01 0.000000e+00 0.000000e+00
1
Step 382000
Ar -8.201779e-01 0.000000e+00 0.000000e+00
1
Step 383000
Ar -8.432991e-01 0.000000e+00 0.000000e+00
1
Step 384000
Ar -6.141157e-01 0.000000e+00 0.000000e+00
1
Step 385000
Ar -5.331116e-01 0.000000e+00 0.000000e+00
1
Step 386000
Ar -3.667844e-01 0.000000e+00 0.000000e+00
1
Step 387000
Ar -7.339665e-01 0.000000e+00 0.000000e+00
1
Step 388000
Ar -7.372029e-01 0.000000e+00 0.000000e+00
1
Step 389000
Ar -7.728848e-01 0.000000e+00 0.000000e+00
1
Step 390000
Ar -7.678512e-01 0.000000e+00 0.000000e+00
1
Step 391000
Ar -8.394827e-01 0.000000e+00 0.000000e+00
1
Step 392000
Ar -8.122346e-01 0.000000e+00 0.000000e+00
1
Step 393000
Ar -9.724070e-01 0.000000e+00 0.000000e+00
1
Step 394000
Ar -8.442041e-01 0.000000e+00 0.000000e+00
1
Step 395000
Ar -8.448642e-01 0.000000e+00 0.000000e+00
1
Step 396000
Ar -8.431279e-01 0.000000e+00 0.000000e+00
1
Step 397000
Ar -8.453210e-01 0.000000e+00 0.000000e+00
1
Step 398000
Ar -8.386126e-01 0.000000e+00 0.000000e+00
1
Step 399000
Ar -8.368076e-01 0.000000e+00 0.000000e+00
1
Step 400000
Ar -8.360153e-01 0.000000e+00 0.000000e+00
1
Step 401000
Ar -7.080679e-01 0.000000e+00 0.000000e+00
1
Step 402000
Ar -6.903788e-01 0.000000e+00 0.000000e+00
1
Step 403000
Ar -6.533055e-01 0.000000e+00 0.000000e+00
1
Step 404000
Ar -6.070753e-01 0.000000e+00 0.000000e+00
1
Step 405000
Ar -5.291317e-01 0.000000e+00 0.000000e+00
1
Step 406000
Ar -6.459189e-01 0.000000e+00 0.000000e+00
1
Step 407000
Ar -6.634099e-01 0.000000e+00 0.000000e+00
1
Step 408000
Ar -6.526622e-01 0.000000e+00 0.000000e+00
1
Step 409000
Ar -6.610980e-01 0.000000e+00 0.000000e+00
1
Step 410000
Ar -6.380015e-01 0.000000e+00 0.000000e+00
1
Step 411000
Ar -6.679114e-01 0.000000e+00 0.000000e+00
1
Step 412000
Ar -6.631183e-01 0.000000e+00 0.000000e+00
1
Step 413000
Ar -6.674686e-01 0.000000e+00 0.000000e+00
1
Step 414000
Ar -6.493470e-01 0.000000e+00 0.000000e+00
1
Step 415000
Ar -6.584207e-01 0.000000e+00 0.000000e+00
1
Step 416000
Ar -6.694605e-01 0.000000e+00 0.000000e+00
1
Step 417000
Ar -6.095598e-01 0.000000e+00 0.000000e+00
1
Step 418000
Ar -6.103724e-01 0.000000e+00 0.000000e+00
1
Step 419000
Ar -6.174855e-01 0.000000e+00 0.000000e+00
1
Step 420000
Ar -5.360718e-01 0.000000e+00 0.000000e+00
1
Step 421000
Ar -4.921267e-01 0.000000e+00 0.000000e+00
1
Step 422000
Ar -4.916836e-01 0.000000e+00 0.000000e+00
1
Step 423000
Ar -1.369194e-01 0.000000e+00 0.000000e+00
1
Step 424000
Ar -5.695653e-01 0.000000e+00 0.000000e+00
1
Step 425000
Ar -5.575189e-01 0.000000e+00 0.000000e+00
1
Step 426000
Ar -5.771311e-01 0.000000e+00 0.000000e+00
1
Step 427000
Ar -5.524143e-01 0.000000e+00 0.000000e+00
1
Step 428000
Ar -9.892851e-01 0.000000e+00 0.000000e+00
1
Step 429000
Ar -1.083161e+00 0.000000e+00 0.000000e+00
1
Step 430000
Ar -1.087437e+00 0.000000e+00 0.000000e+00
1
Step 431000
Ar -1.089339e+00 0.000000e+00 0.000000e+00
1
Step 432000
Ar -1.087610e+00 0.000000e+00 0.000000e+00
1
Step 433000
Ar -1.132267e+00 0.000000e+00 0.000000e+00
1
Step 434000
Ar -1.123844e+00 0.000000e+00 0.000000e+00
1
Step 435000
Ar -1.126381e+00 0.000000e+00 0.000000e+00
1
Step 436000
Ar -1.130631e+00 0.000000e+00 0.000000e+00
1
Step 437000
Ar -1.128053e+00 0.000000e+00 0.000000e+00
1
Step 438000
Ar -1.101291e+00 0.000000e+00 0.000000e+00
1
Step 439000
Ar -1.168670e+00 0.000000e+00 0.000000e+00
1
Step 440000
Ar -1.166628e+00 0.000000e+00 0.000000e+00
1
Step 441000
Ar -1.181558e+00 0.000000e+00 0.000000e+00
1
Step 442000
Ar -1.179356e+00 0.000000e+00 0.000000e+00
1
Step 443000
Ar -1.176272e+00 0.000000e+00 0.000000e+00
1
Step 444000
Ar -1.180190e+00 0.000000e+00 0.000000e+00
1
Step 445000
Ar -1.179474e+00 0.000000e+00 0.000000e+00
1
Step 446000
Ar -1.174209e+00 0.000000e+00 0.000000e+00
1
Step 447000
Ar -1.172907e+00 0.000000e+00 0.000000e+00
1
Step 448000
Ar -1.316979e+00 0.000000e+00 0.000000e+00
1
Step 449000
Ar -1.240253e+00 0.000000e+00 0.000000e+00
1
Step 450000
Ar -1.277606e+00 0.000000e+00 0.000000e+00
1
Step 451000
Ar -1.232060e+00 0.000000e+00 0.000000e+00
1
Step 452000
Ar -1.211497e+00 0.000000e+00 0.000000e+00
1
Step 453000
Ar -1.226317e+00 0.000000e+00 0.000000e+00
1
Step 454000
Ar -1.238459e+00 0.000000e+00 0.000000e+00
1
Step 455000
Ar -1.072593e+00 0.000000e+00 0.000000e+00
1
Step 456000
Ar -1.128208e+00 0.000000e+00 0.000000e+00
1
Step 457000
Ar -1.147105e+00 0.000000e+00 0.000000e+00
1
Step 458000
Ar -1.078707e+00 0.000000e+00 0.000000e+00
1
Step 459000
Ar -1.093499e+00 0.000000e+00 0.000000e+00
1
Step 460000
Ar -1.060289e+00 0.000000e+00 0.000000e+00
1
Step 461000
Ar -1.059929e+00 0.000000e+00 0.000000e+00
1
Step 462000
Ar -1.086316e+00 0.000000e+00 0.000000e+00
1
Step 463000
Ar -1.024694e+00 0.000000e+00 0.000000e+00
1
Step 464000
Ar -1.059562e+00 0.000000e+00 0.000000e+00
1
Step 465000
Ar -1.055157e+00 0.000000e+00 0.000000e+00
1
Step 466000
Ar -1.120620e+00 0.000000e+00 0.000000e+00
1
Step 467000
Ar -1.126855e+00 0.000000e+00 0.000000e+00
1
Step 468000
Ar -1.123830e+00 0.000000e+00 0.000000e+00
1
Step 469000
Ar -1.126881e+00 0.000000e+00 0.000000e+00
1
Step 470000
Ar -1.092329e+00 0.000000e+00 0.000000e+00
1
Step 471000
Ar -1.094101e+00 0.000000e+00 0.000000e+00
1
Step 472000
Ar -1.273766e+00 0.000000e+00 0.000000e+00
1
Step 473000
Ar -1.131590e+00 0.000000e+00 0.000000e+00
1
Step 474000
Ar -1.150495e+00 0.000000e+00 0.000000e+00
1
Step 475000
Ar -1.093805e+00 0.000000e+00 0.000000e+00
1
Step 476000
Ar -1.132436e+00 0.000000e+00 0.000000e+00
1
Step 477000
Ar -1.074913e+00 0.000000e+00 0.000000e+00
1
Step 478000
Ar -1.127828e+00 0.000000e+00 0.000000e+00
1
Step 479000
Ar -1.150146e+00 0.000000e+00 0.000000e+00
1
Step 480000
Ar -1.120394e+00 0.000000e+00 0.000000e+00
1
Step 481000
Ar -1.144263e+00 0.000000e+00 0.000000e+00
1
Step 482000
Ar -1.085390e+00 0.000000e+00 0.000000e+00
1
Step 483000
Ar -8.352425e-01 0.000000e+00 0.000000e+00
1
Step 484000
Ar -8.354985e-01 0.000000e+00 0.000000e+00
1
Step 485000
Ar -8.369160e-01 0.000000e+00 0.000000e+00
1
Step 486000
Ar -8.331944e-01 0.000000e+00 0.000000e+00
1
Step 487000
Ar -8.652622e-01 0.000000e+00 0.000000e+00
1
Step 488000
Ar -7.841990e-01 0.000000e+00 0.000000e+00
1
Step 489000
Ar -7.789008e-01 0.000000e+00 0.000000e+00
1
Step 490000
Ar -7.720153e-01 0.000000e+00 0.000000e+00
1
Step 491000
Ar -7.741518e-01 0.000000e+00 0.000000e+00
1
Step 492000
Ar -7.828148e-01 0.000000e+00 0.000000e+00
1
Step 493000
Ar -7.806647e-01 0.000000e+00 0.000000e+00
1
Step 494000
Ar -7.738065e-01 0.000000e+00 0.000000e+00
1
Step 495000
Ar -7.851084e-01 0.000000e+00 0.000000e+00
1
Step 496000
Ar -7.421368e-01 0.000000e+00 0.000000e+00
1
Step 497000
Ar -7.433976e-01 0.000000e+00 0.000000e+00
1
Step 498000
Ar -7.724132e-01 0.000000e+00 0.000000e+00
1
Step 499000
Ar -7.727963e-01 0.000000e+00 0.000000e+00
1
Step 500000
Ar -7.460175e-01 0.000000e+00 0.000000e+00
1
Step 501000
Ar -7.883579e-01 0.000000e+00 0.000000e+00
1
Step 502000
Ar -8.075759e-01 0.000000e+00 0.000000e+00
1
Step 503000
Ar -9.537070e-01 0.000000e+00 0.000000e+00
1
Step 504000
Ar -9.567232e-01 0.000000e+00 0.000000e+00
1
Step 505000
Ar -9.614374e-01 0.000000e+00 0.000000e+00
1
Step 506000
Ar -9.575316e-01 0.000000e+00 0.000000e+00
1
Step 507000
Ar -9.545444e-01 0.000000e+00 0.000000e+00
1
Step 508000
Ar -9.564705e-01 0.000000e+00 0.000000e+00
1
Step 509000
Ar -9.533197e-01 0.000000e+00 0.000000e+00
1
Step 510000
Ar -9.617705e-01 0.000000e+00 0.000000e+00
1
Step 511000
Ar -9.111718e-01 0.000000e+00 0.000000e+00
1
Step 512000
Ar -7.859662e-01 0.000000e+00 0.000000e+00
1
Step 513000
Ar -7.834908e-01 0.000000e+00 0.000000e+00
1
Step 514000
Ar -9.557166e-01 0.000000e+00 0.000000e+00
1
Step 515000
Ar -9.535859e-01 0.000000e+00 0.000000e+00
1
Step 516000
Ar -9.500102e-01 0.000000e+00 0.000000e+00
1
Step 517000
Ar -9.597276e-01 0.000000e+00 0.000000e+00
1
Step 518000
Ar -9.588487e-01 0.000000e+00 0.000000e+00
1
Step 519000
Ar -9.549076e-01 0.000000e+00 0.000000e+00
1
Step 520000
Ar -9.627811e-01 0.000000e+00 0.000000e+00
1
Step 521000
Ar -9.639849e-01 0.000000e+00 0.000000e+00
1
Step 522000
Ar -9.576953e-01 0.000000e+00 0.000000e+00
1
Step 523000
Ar -9.638704e-01 0.000000e+00 0.000000e+00
1
Step 524000
Ar -9.609256e-01 0.000000e+00 0.000000e+00
1
Step 525000
Ar -8.864134e-01 0.000000e+00 0.000000e+00
1
Step 526000
Ar -1.360096e+00 0.000000e+00 0.000000e+00
1
Step 527000
Ar -1.239624e+00 0.000000e+00 0.000000e+00
1
Step 528000
Ar -1.280054e+00 0.000000e+00 0.000000e+00
1
Step 529000
Ar -1.302339e+00 0.000000e+00 0.000000e+00
1
Step 530000
Ar -1.396336e+00 0.000000e+00 0.000000e+00
1
Step 531000
Ar -1.273245e+00 0.000000e+00 0.000000e+00
1
Step 532000
Ar -1.279731e+00 0.000000e+00 0.000000e+00
1
Step 533000
Ar -1.358234e+00 0.000000e+00 0.000000e+00
1
Step 534000
Ar -1.216351e+00 0.000000e+00 0.000000e+00
1
Step 535000
Ar -1.290573e+00 0.000000e+00 0.000000e+00
1
Step 536000
Ar -1.273161e+00 0.000000e+00 0.000000e+00
1
Step 537000
Ar -1.241765e+00 0.000000e+00 0.000000e+00
1
Step 538000
Ar -9.952915e-01 0.000000e+00 0.000000e+00
1
Step 539000
Ar -1.239327e+00 0.000000e+00 0.000000e+00
1
Step 540000
Ar -1.153259e+00 0.000000e+00 0.000000e+00
1
Step 541000
Ar -1.078513e+00 0.000000e+00 0.000000e+00
1
Step 542000
Ar -9.907937e-01 0.000000e+00 0.000000e+00
1
Step 543000
Ar -9.915993e-01 0.000000e+00 0.000000e+00
1
Step 544000
Ar -9.898460e-01 0.000000e+00 0.000000e+00
1
Step 545000
Ar -9.619681e-01 0.000000e+00 0.000000e+00
1
Step 546000
Ar -7.420798e-01 0.000000e+00 0.000000e+00
1
Step 547000
Ar -7.882155e-01 0.000000e+00 0.000000e+00
1
Step 548000
Ar -7.868788e-01 0.000000e+00 0.000000e+00
1
Step 549000
Ar -8.035530e-01 0.000000e+00 0.000000e+00
1
Step 550000
Ar -7.536523e-01 0.000000e+00 0.000000e+00
1
Step 551000
Ar -7.697561e-01 0.000000e+00 0.000000e+00
1
Step 552000
Ar -7.450793e-01 0.000000e+00 0.000000e+00
1
Step 553000
Ar -7.498740e-01 0.000000e+00 0.000000e+00
1
Step 554000
Ar -7.424472e-01 0.000000e+00 0.000000e+00
1
Step 555000
Ar -7.511669e-01 0.000000e+00 0.000000e+00
1
Step 556000
Ar -7.473602e-01 0.000000e+00 0.000000e+00
1
Step 557000
Ar -7.464864e-01 0.000000e+00 0.000000e+00
1
Step 558000
Ar -7.429514e-01 0.000000e+00 0.000000e+00
1
Step 559000
Ar -7.392269e-01 0.000000e+00 0.000000e+00
1
Step 560000
Ar -7.535925e-01 0.000000e+00 0.000000e+00
1
Step 561000
Ar -7.573476e-01 0.000000e+00 0.000000e+00
1
Step 562000
Ar -8.131492e-01 0.000000e+00 0.000000e+00
1
Step 563000
Ar -8.601654e-01 0.000000e+00 0.000000e+00
1
Step 564000
Ar -8.277927e-01 0.000000e+00 0.000000e+00
1
Step 565000
Ar -8.118238e-01 0.000000e+00 0.000000e+00
1
Step 566000
Ar -8.617430e-01 0.000000e+00 0.000000e+00
1
Step 567000
Ar -8.652754e-01 0.000000e+00 0.000000e+00
1
Step 568000
Ar -8.293526e-01 0.000000e+00 0.000000e+00
1
Step 569000
Ar -9.167658e-01 0.000000e+00 0.000000e+00
1
Step 570000
Ar -9.214242e-01 0.000000e+00 0.000000e+00
1
Step 571000
Ar -9.216534e-01 0.000000e+00 0.000000e+00
1
Step 572000
Ar -9.198117e-01 0.000000e+00 0.000000e+00
1
Step 573000
Ar -9.280267e-01 0.000000e+00 0.000000e+00
1
Step 574000
Ar -9.243863e-01 0.000000e+00 0.000000e+00
1
Step 575000
Ar -9.228932e-01 0.000000e+00 0.000000e+00
1
Step 576000
Ar -8.906253e-01 0.000000e+00 0.000000e+00
1
Step 577000
Ar -1.342727e+00 0.000000e+00 0.000000e+00
1
Step 578000
Ar -1.348013e+00 0.000000e+00 0.000000e+00
1
Step 579000
Ar -1.359451e+00 0.000000e+00 0.000000e+00
1
Step 580000
Ar -1.387735e+00 0.000000e+00 0.000000e+00
1
Step 581000
Ar -1.361591e+00 0.000000e+00 0.000000e+00
1
Step 582000
Ar -1.352722e+00 0.000000e+00 0.000000e+00
1
Step 583000
Ar -1.179129e+00 0.000000e+00 0.000000e+00
1
Step 584000
Ar -1.305345e+00 0.000000e+00 0.000000e+00
1
Step 585000
Ar -1.298200e+00 0.000000e+00 0.000000e+00
1
Step 586000
Ar -1.311421e+00 0.000000e+00 0.000000e+00
1
Step 587000
Ar -1.237050e+00 0.000000e+00 0.000000e+00
1
Step 588000
Ar -1.239365e+00 0.000000e+00 0.000000e+00
1
Step 589000
Ar -1.277102e+00 0.000000e+00 0.000000e+00
1
Step 590000
Ar -1.236923e+00 0.000000e+00 0.000000e+00
1
Step 591000
Ar -1.235564e+00 0.000000e+00 0.000000e+00
1
Step 592000
Ar -1.246405e+00 0.000000e+00 0.000000e+00
1
Step 593000
Ar -1.315229e+00 0.000000e+00 0.000000e+00
1
Step 594000
Ar -1.314915e+00 0.000000e+00 0.000000e+00
1
Step 595000
Ar -1.314732e+00 0.000000e+00 0.000000e+00
1
Step 596000
Ar -1.344305e+00 0.000000e+00 0.000000e+00
1
Step 597000
Ar -1.351880e+00 0.000000e+00 0.000000e+00
1
Step 598000
Ar -1.333633e+00 0.000000e+00 0.000000e+00
1
Step 599000
Ar -1.350404e+00 0.000000e+00 0.000000e+00
1
Step 600000
Ar -1.343134e+00 0.000000e+00 0.000000e+00
1
Step 601000
Ar -1.005096e+00 0.000000e+00 0.000000e+00
1
Step 602000
Ar -1.235307e+00 0.000000e+00 0.000000e+00
1
Step 603000
Ar -1.170473e+00 0.000000e+00 0.000000e+00
1
Step 604000
Ar -1.171378e+00 0.000000e+00 0.000000e+00
1
Step 605000
Ar -1.174591e+00 0.000000e+00 0.000000e+00
1
Step 606000
Ar -1.170130e+00 0.000000e+00 0.000000e+00
1
Step 607000
Ar -1.152692e+00 0.000000e+00 0.000000e+00
1
Step 608000
Ar -1.147852e+00 0.000000e+00 0.000000e+00
1
Step 609000
Ar -1.145082e+00 0.000000e+00 0.000000e+00
1
Step 610000
Ar -1.174736e+00 0.000000e+00 0.000000e+00
1
Step 611000
Ar -1.004811e+00 0.000000e+00 0.000000e+00
1
Step 612000
Ar -1.007630e+00 0.000000e+00 0.000000e+00
1
Step 613000
Ar -1.007688e+00 0.000000e+00 0.000000e+00
1
Step 614000
Ar -9.984415e-01 0.000000e+00 0.000000e+00
1
Step 615000
Ar -1.007279e+00 0.000000e+00 0.000000e+00
1
Step 616000
Ar -1.005070e+00 0.000000e+00 0.000000e+00
1
Step 617000
Ar -1.027992e+00 0.000000e+00 0.000000e+00
1
Step 618000
Ar -1.008304e+00 0.000000e+00 0.000000e+00
1
Step 619000
Ar -1.040585e+00 0.000000e+00 0.000000e+00
1
Step 620000
Ar -1.040301e+00 0.000000e+00 0.000000e+00
1
Step 621000
Ar -1.039884e+00 0.000000e+00 0.000000e+00
1
Step 622000
Ar -1.037452e+00 0.000000e+00 0.000000e+00
1
Step 623000
Ar -1.039621e+00 0.000000e+00 0.000000e+00
1
Step 624000
Ar -1.354472e+00 0.000000e+00 0.000000e+00
1
Step 625000
Ar -1.350076e+00 0.000000e+00 0.000000e+00
1
Step 626000
Ar -1.350474e+00 0.000000e+00 0.000000e+00
1
Step 627000
Ar -1.346846e+00 0.000000e+00 0.000000e+00
1
Step 628000
Ar -1.336212e+00 0.000000e+00 0.000000e+00
1
Step 629000
Ar -1.038888e+00 0.000000e+00 0.000000e+00
1
Step 630000
Ar -1.041021e+00 0.000000e+00 0.000000e+00
1
Step 631000
Ar -1.205380e+00 0.000000e+00 0.000000e+00
1
Step 632000
Ar -1.275173e+00 0.000000e+00 0.000000e+00
1
Step 633000
Ar -1.238366e+00 0.000000e+00 0.000000e+00
1
Step 634000
Ar -1.239318e+00 0.000000e+00 0.000000e+00
1
Step 635000
Ar -1.235694e+00 0.000000e+00 0.000000e+00
1
Step 636000
Ar -1.230896e+00 0.000000e+00 0.000000e+00
1
Step 637000
Ar -1.238423e+00 0.000000e+00 0.000000e+00
1
Step 638000
Ar -1.239262e+00 0.000000e+00 0.000000e+00
1
Step 639000
Ar -1.241184e+00 0.000000e+00 0.000000e+00
1
Step 640000
Ar -1.239083e+00 0.000000e+00 0.000000e+00
1
Step 641000
Ar -1.277553e+00 0.000000e+00 0.000000e+00
1
Step 642000
Ar -1.242682e+00 0.000000e+00 0.000000e+00
1
Step 643000
Ar -1.244665e+00 0.000000e+00 0.000000e+00
1
Step 644000
Ar -1.232619e+00 0.000000e+00 0.000000e+00
1
Step 645000
Ar -1.235689e+00 0.000000e+00 0.000000e+00
1
Step 646000
Ar -1.114310e+00 0.000000e+00 0.000000e+00
1
Step 647000
Ar -1.148867e+00 0.000000e+00 0.000000e+00
1
Step 648000