1
Step 120000
Ar 9.913566e-01 0.000000e+00 0.000000e+00
1
Step 121000
Ar 1.016628e+00 0.000000e+00 0.000000e+00
1
Step 122000
Ar 9.975134e-01 0.000000e+00 0.000000e+00
1
Step 123000
Ar 9.846084e-01 0.000000e+00 0.000000e+00
1
Step 124000
Ar 9.975389e-01 0.000000e+00 0.000000e+00
1
Step 125000
Ar 9.895946e-01 0.000000e+00 0.000000e+00
1
Step 126000
Ar 1.003085e+00 0.000000e+00 0.000000e+00
1
Step 127000
Ar 1.019211e+00 0.000000e+00 0.000000e+00
1
Step 128000
Ar 1.004693e+00 0.000000e+00 0.000000e+00
1
Step 129000
Ar 1.003488e+00 0.000000e+00 0.000000e+00
1
Step 130000
Ar 1.013345e+00 0.000000e+00 0.000000e+00
1
Step 131000
Ar 1.021496e+00 0.000000e+00 0.000000e+00
1
Step 132000
Ar 1.029174e+00 0.000000e+00 0.000000e+00
1
Step 133000
Ar 1.025838e+00 0.000000e+00 0.000000e+00
1
Step 134000
Ar 1.026579e+00 0.000000e+00 0.000000e+00
1
Step 135000
Ar 1.032184e+00 0.000000e+00 0.000000e+00
1
Step 136000
Ar 1.002589e+00 0.000000e+00 0.000000e+00
1
Step 137000
Ar 1.002629e+00 0.000000e+00 0.000000e+00
1
Step 138000
Ar 9.985976e-01 0.000000e+00 0.000000e+00
1
Step 139000
Ar 1.002022e+00 0.000000e+00 0.000000e+00
1
Step 140000
Ar 9.996625e-01 0.000000e+00 0.000000e+00
1
Step 141000
Ar 9.694494e-01 0.000000e+00 0.000000e+00
1
Step 142000
Ar 9.792030e-01 0.000000e+00 0.000000e+00
1
Step 143000
Ar 9.729703e-01 0.000000e+00 0.000000e+00
1
Step 144000
Ar 9.786364e-01 0.000000e+00 0.000000e+00
1
Step 145000
Ar 9.731703e-01 0.000000e+00 0.000000e+00
1
Step 146000
Ar 9.543274e-01 0.000000e+00 0.000000e+00
1
Step 147000
Ar 9.538933e-01 0.000000e+00 0.000000e+00
1
Step 148000
Ar 9.585468e-01 0.000000e+00 0.000000e+00
1
Step 149000
Ar 9.526610e-01 0.000000e+00 0.000000e+00
1
Step 150000
Ar 9.632319e-01 0.000000e+00 0.000000e+00
1
Step 151000
Ar 9.522655e-01 0.000000e+00 0.000000e+00
1
Step 152000
Ar 9.478058e-01 0.000000e+00 0.000000e+00
1
Step 153000
Ar 9.434581e-01 0.000000e+00 0.000000e+00
1
Step 154000
Ar 9.483483e-01 0.000000e+00 0.000000e+00
1
Step 155000
Ar 9.508920e-01 0.000000e+00 0.000000e+00
1
Step 156000
Ar 1.044898e+00 0.000000e+00 0.000000e+00
1
Step 157000
Ar 1.044453e+00 0.000000e+00 0.000000e+00
1
Step 158000
Ar 1.042160e+00 0.000000e+00 0.000000e+00
1
Step 159000
Ar 1.038888e+00 0.000000e+00 0.000000e+00
1
Step 160000
Ar 1.048645e+00 0.000000e+00 0.000000e+00
1
Step 161000
Ar 9.351709e-01 0.000000e+00 0.000000e+00
1
Step 162000
Ar 9.447182e-01 0.000000e+00 0.000000e+00
1
Step 163000
Ar 9.360058e-01 0.000000e+00 0.000000e+00
1
Step 164000
Ar 9.407971e-01 0.000000e+00 0.000000e+00
1
Step 165000
Ar 9.385402e-01 0.000000e+00 0.000000e+00
1
Step 166000
Ar 1.069843e+00 0.000000e+00 0.000000e+00
1
Step 167000
Ar 1.020454e+00 0.000000e+00 0.000000e+00
1
Step 168000
Ar 1.053022e+00 0.000000e+00 0.000000e+00
1
Step 169000
Ar 9.268647e-01 0.000000e+00 0.000000e+00
1
Step 170000
Ar 9.283626e-01 0.000000e+00 0.000000e+00
1
Step 171000
Ar 9.810256e-01 0.000000e+00 0.000000e+00
1
Step 172000
Ar 1.055080e+00 0.000000e+00 0.000000e+00
1
Step 173000
Ar 1.060228e+00 0.000000e+00 0.000000e+00
1
Step 174000
Ar 1.057207e+00 0.000000e+00 0.000000e+00
1
Step 175000
Ar 8.191967e-01 0.000000e+00 0.000000e+00
1
Step 176000
Ar 9.140747e-01 0.000000e+00 0.000000e+00
1
Step 177000
Ar 1.024668e+00 0.000000e+00 0.000000e+00
1
Step 178000
Ar 1.057725e+00 0.000000e+00 0.000000e+00
1
Step 179000
Ar 1.059829e+00 0.000000e+00 0.000000e+00
1
Step 180000
Ar 1.061307e+00 0.000000e+00 0.000000e+00
1
Step 181000
Ar 1.020462e+00 0.000000e+00 0.000000e+00
1
Step 182000
Ar 1.040555e+00 0.000000e+00 0.000000e+00
1
Step 183000
Ar 1.019695e+00 0.000000e+00 0.000000e+00
1
Step 184000
Ar 1.085753e+00 0.000000e+00 0.000000e+00
1
Step 185000
Ar 1.069945e+00 0.000000e+00 0.000000e+00
1
Step 186000
Ar 1.079370e+00 0.000000e+00 0.000000e+00
1
Step 187000
Ar 1.078821e+00 0.000000e+00 0.000000e+00
1
Step 188000
Ar 1.079877e+00 0.000000e+00 0.000000e+00
1
Step 189000
Ar 1.075503e+00 0.000000e+00 0.000000e+00
1
Step 190000
Ar 1.076140e+00 0.000000e+00 0.000000e+00
1
Step 191000
Ar 9.132570e-01 0.000000e+00 0.000000e+00
1
Step 192000
Ar 9.164943e-01 0.000000e+00 0.000000e+00
1
Step 193000
Ar 9.159928e-01 0.000000e+00 0.000000e+00
1
Step 194000
Ar 9.792456e-01 0.000000e+00 0.000000e+00
1
Step 195000
Ar 1.039346e+00 0.000000e+00 0.000000e+00
1
Step 196000
Ar 1.019052e+00 0.000000e+00 0.000000e+00
1
Step 197000
Ar 9.699741e-01 0.000000e+00 0.000000e+00
1
Step 198000
Ar 1.083711e+00 0.000000e+00 0.000000e+00
1
Step 199000
Ar 1.087721e+00 0.000000e+00 0.000000e+00
1
Step 200000
Ar 1.087996e+00 0.000000e+00 0.000000e+00
1
Step 201000
Ar 1.055866e+00 0.000000e+00 0.000000e+00
1
Step 202000
Ar 9.959476e-01 0.000000e+00 0.000000e+00
1
Step 203000
Ar 1.107634e+00 0.000000e+00 0.000000e+00
1
Step 204000
Ar 1.019586e+00 0.000000e+00 0.000000e+00
1
Step 205000
Ar 1.028181e+00 0.000000e+00 0.000000e+00
1
Step 206000
Ar 1.007992e+00 0.000000e+00 0.000000e+00
1
Step 207000
Ar 9.210195e-01 0.000000e+00 0.000000e+00
1
Step 208000
Ar 9.121442e-01 0.000000e+00 0.000000e+00
1
Step 209000
Ar 9.161497e-01 0.000000e+00 0.000000e+00
1
Step 210000
Ar 9.200927e-01 0.000000e+00 0.000000e+00
1
Step 211000
Ar 9.058228e-01 0.000000e+00 0.000000e+00
1
Step 212000
Ar 9.057183e-01 0.000000e+00 0.000000e+00
1
Step 213000
Ar 9.106443e-01 0.000000e+00 0.000000e+00
1
Step 214000
Ar 9.082993e-01 0.000000e+00 0.000000e+00
1
Step 215000
Ar 8.057195e-01 0.000000e+00 0.000000e+00
1
Step 216000
Ar 1.129420e+00 0.000000e+00 0.000000e+00
1
Step 217000
Ar 9.101459e-01 0.000000e+00 0.000000e+00
1
Step 218000
Ar 9.109470e-01 0.000000e+00 0.000000e+00
1
Step 219000
Ar 9.090064e-01 0.000000e+00 0.000000e+00
1
Step 220000
Ar 9.134085e-01 0.000000e+00 0.000000e+00
1
Step 221000
Ar 9.041363e-01 0.000000e+00 0.000000e+00
1
Step 222000
Ar 9.014563e-01 0.000000e+00 0.000000e+00
1
Step 223000
Ar 9.020104e-01 0.000000e+00 0.000000e+00
1
Step 224000
Ar 9.010196e-01 0.000000e+00 0.000000e+00
1
Step 225000
Ar 9.023313e-01 0.000000e+00 0.000000e+00
1
Step 226000
Ar 8.934326e-01 0.000000e+00 0.000000e+00
1
Step 227000
Ar 8.959483e-01 0.000000e+00 0.000000e+00
1
Step 228000
Ar 8.907540e-01 0.000000e+00 0.000000e+00
1
Step 229000
Ar 8.924374e-01 0.000000e+00 0.000000e+00
1
Step 230000
Ar 8.927985e-01 0.000000e+00 0.000000e+00
1
Step 231000
Ar 1.054763e+00 0.000000e+00 0.000000e+00
1
Step 232000
Ar 1.019064e+00 0.000000e+00 0.000000e+00
1
Step 233000
Ar 1.109458e+00 0.000000e+00 0.000000e+00
1
Step 234000
Ar 9.995134e-01 0.000000e+00 0.000000e+00
1
Step 235000
Ar 8.809817e-01 0.000000e+00 0.000000e+00
1
Step 236000
Ar 1.055884e+00 0.000000e+00 0.000000e+00
1
Step 237000
Ar 1.051386e+00 0.000000e+00 0.000000e+00
1
Step 238000
Ar 1.042593e+00 0.000000e+00 0.000000e+00
1
Step 239000
Ar 1.082437e+00 0.000000e+00 0.000000e+00
1
Step 240000
Ar 9.046731e-01 0.000000e+00 0.000000e+00
1
Step 241000
Ar 1.031301e+00 0.000000e+00 0.000000e+00
1
Step 242000
Ar 1.019147e+00 0.000000e+00 0.000000e+00
1
Step 243000
Ar 9.892281e-01 0.000000e+00 0.000000e+00
1
Step 244000
Ar 1.022171e+00 0.000000e+00 0.000000e+00
1
Step 245000
Ar 1.003403e+00 0.000000e+00 0.000000e+00
1
Step 246000
Ar 8.699101e-01 0.000000e+00 0.000000e+00
1
Step 247000
Ar 9.383064e-01 0.000000e+00 0.000000e+00
1
Step 248000
Ar 8.875799e-01 0.000000e+00 0.000000e+00
1
Step 249000
Ar 8.907276e-01 0.000000e+00 0.000000e+00
1
Step 250000
Ar 8.903200e-01 0.000000e+00 0.000000e+00
1
Step 251000
Ar 8.709603e-01 0.000000e+00 0.000000e+00
1
Step 252000
Ar 8.747912e-01 0.000000e+00 0.000000e+00
1
Step 253000
Ar 8.686325e-01 0.000000e+00 0.000000e+00
1
Step 254000
Ar 8.710602e-01 0.000000e+00 0.000000e+00
1
Step 255000
Ar 8.713322e-01 0.000000e+00 0.000000e+00
1
Step 256000
Ar 1.048689e+00 0.000000e+00 0.000000e+00
1
Step 257000
Ar 1.015847e+00 0.000000e+00 0.000000e+00
1
Step 258000
Ar 1.054105e+00 0.000000e+00 0.000000e+00
1
Step 259000
Ar 1.052828e+00 0.000000e+00 0.000000e+00
1
Step 260000
Ar 1.055787e+00 0.000000e+00 0.000000e+00
1
Step 261000
Ar 1.121157e+00 0.000000e+00 0.000000e+00
1
Step 262000
Ar 1.094634e+00 0.000000e+00 0.000000e+00
1
Step 263000
Ar 9.662371e-01 0.000000e+00 0.000000e+00
1
Step 264000
Ar 1.034439e+00 0.000000e+00 0.000000e+00
1
Step 265000
Ar 1.017801e+00 0.000000e+00 0.000000e+00
1
Step 266000
Ar 1.041008e+00 0.000000e+00 0.000000e+00
1
Step 267000
Ar 1.042891e+00 0.000000e+00 0.000000e+00
1
Step 268000
Ar 1.045253e+00 0.000000e+00 0.000000e+00
1
Step 269000
Ar 1.040878e+00 0.000000e+00 0.000000e+00
1
Step 270000
Ar 1.042537e+00 0.000000e+00 0.000000e+00
1
Step 271000
Ar 9.830440e-01 0.000000e+00 0.000000e+00
1
Step 272000
Ar 1.010994e+00 0.000000e+00 0.000000e+00
1
Step 273000
Ar 1.042845e+00 0.000000e+00 0.000000e+00
1
Step 274000
Ar 1.036752e+00 0.000000e+00 0.000000e+00
1
Step 275000
Ar 1.161304e+00 0.000000e+00 0.000000e+00
1
Step 276000
Ar 1.096919e+00 0.000000e+00 0.000000e+00
1
Step 277000
Ar 9.731604e-01 0.000000e+00 0.000000e+00
1
Step 278000
Ar 1.097465e+00 0.000000e+00 0.000000e+00
1
Step 279000
Ar 1.024507e+00 0.000000e+00 0.000000e+00
1
Step 280000
Ar 9.771078e-01 0.000000e+00 0.000000e+00
1
Step 281000
Ar 1.096652e+00 0.000000e+00 0.000000e+00
1
Step 282000
Ar 1.098207e+00 0.000000e+00 0.000000e+00
1
Step 283000
Ar 1.095173e+00 0.000000e+00 0.000000e+00
1
Step 284000
Ar 1.097107e+00 0.000000e+00 0.000000e+00
1
Step 285000
Ar 1.101934e+00 0.000000e+00 0.000000e+00
1
Step 286000
Ar 9.604539e-01 0.000000e+00 0.000000e+00
1
Step 287000
Ar 9.588000e-01 0.000000e+00 0.000000e+00
1
Step 288000
Ar 9.628252e-01 0.000000e+00 0.000000e+00
1
Step 289000
Ar 9.571679e-01 0.000000e+00 0.000000e+00
1
Step 290000
Ar 9.574553e-01 0.000000e+00 0.000000e+00
1
Step 291000
Ar 8.630906e-01 0.000000e+00 0.000000e+00
1
Step 292000
Ar 8.585091e-01 0.000000e+00 0.000000e+00
1
Step 293000
Ar 1.008662e+00 0.000000e+00 0.000000e+00
1
Step 294000
Ar 9.511241e-01 0.000000e+00 0.000000e+00
1
Step 295000
Ar 8.647047e-01 0.000000e+00 0.000000e+00
1
Step 296000
Ar 8.527440e-01 0.000000e+00 0.000000e+00
1
Step 297000
Ar 8.470098e-01 0.000000e+00 0.000000e+00
1
Step 298000
Ar 8.588278e-01 0.000000e+00 0.000000e+00
1
Step 299000
Ar 8.534349e-01 0.000000e+00 0.000000e+00
1
Step 300000
Ar 8.528018e-01 0.000000e+00 0.000000e+00
1
Step 301000
Ar 8.149301e-01 0.000000e+00 0.000000e+00
1
Step 302000
Ar 1.275325e+00 0.000000e+00 0.000000e+00
1
Step 303000
Ar 9.856999e-01 0.000000e+00 0.000000e+00
1
Step 304000
Ar 1.053680e+00 0.000000e+00 0.000000e+00
1
Step 305000
Ar 1.027203e+00 0.000000e+00 0.000000e+00
1
Step 306000
Ar 9.465319e-01 0.000000e+00 0.000000e+00
1
Step 307000
Ar 1.028011e+00 0.000000e+00 0.000000e+00
1
Step 308000
Ar 1.051483e+00 0.000000e+00 0.000000e+00
1
Step 309000
Ar 1.049336e+00 0.000000e+00 0.000000e+00
1
Step 310000
Ar 1.056258e+00 0.000000e+00 0.000000e+00
1
Step 311000
Ar 8.534650e-01 0.000000e+00 0.000000e+00
1
Step 312000
Ar 8.857048e-01 0.000000e+00 0.000000e+00
1
Step 313000
Ar 9.839645e-01 0.000000e+00 0.000000e+00
1
Step 314000
Ar 9.518800e-01 0.000000e+00 0.000000e+00
1
Step 315000
Ar 9.651365e-01 0.000000e+00 0.000000e+00
1
Step 316000
Ar 1.012676e+00 0.000000e+00 0.000000e+00
1
Step 317000
Ar 1.103133e+00 0.000000e+00 0.000000e+00
1
Step 318000
Ar 9.663190e-01 0.000000e+00 0.000000e+00
1
Step 319000
Ar 1.201936e+00 0.000000e+00 0.000000e+00
1
Step 320000
Ar 1.078214e+00 0.000000e+00 0.000000e+00
1
Step 321000
Ar 1.088153e+00 0.000000e+00 0.000000e+00
1
Step 322000
Ar 1.093816e+00 0.000000e+00 0.000000e+00
1
Step 323000
Ar 1.133357e+00 0.000000e+00 0.000000e+00
1
Step 324000
Ar 1.036523e+00 0.000000e+00 0.000000e+00
1
Step 325000
Ar 1.034424e+00 0.000000e+00 0.000000e+00
1
Step 326000
Ar 1.088199e+00 0.000000e+00 0.000000e+00
1
Step 327000
Ar 1.328390e+00 0.000000e+00 0.000000e+00
1
Step 328000
Ar 1.031976e+00 0.000000e+00 0.000000e+00
1
Step 329000
Ar 1.093993e+00 0.000000e+00 0.000000e+00
1
Step 330000
Ar 1.094108e+00 0.000000e+00 0.000000e+00
1
Step 331000
Ar 8.662147e-01 0.000000e+00 0.000000e+00
1
Step 332000
Ar 1.231832e+00 0.000000e+00 0.000000e+00
1
Step 333000
Ar 1.000831e+00 0.000000e+00 0.000000e+00
1
Step 334000
Ar 1.109686e+00 0.000000e+00 0.000000e+00
1
Step 335000
Ar 9.490823e-01 0.000000e+00 0.000000e+00
1
Step 336000
Ar 9.862269e-01 0.000000e+00 0.000000e+00
1
Step 337000
Ar 9.870759e-01 0.000000e+00 0.000000e+00
1
Step 338000
Ar 9.425635e-01 0.000000e+00 0.000000e+00
1
Step 339000
Ar 9.949512e-01 0.000000e+00 0.000000e+00
1
Step 340000
Ar 1.049940e+00 0.000000e+00 0.000000e+00
1
Step 341000
Ar 1.076404e+00 0.000000e+00 0.000000e+00
1
Step 342000
Ar 9.336490e-01 0.000000e+00 0.000000e+00
1
Step 343000
Ar 9.423760e-01 0.000000e+00 0.000000e+00
1
Step 344000
Ar 9.419687e-01 0.000000e+00 0.000000e+00
1
Step 345000
Ar 9.380560e-01 0.000000e+00 0.000000e+00
1
Step 346000
Ar 1.122586e+00 0.000000e+00 0.000000e+00
1
Step 347000
Ar 8.312504e-01 0.000000e+00 0.000000e+00
1
Step 348000
Ar 9.980388e-01 0.000000e+00 0.000000e+00
1
Step 349000
Ar 9.816088e-01 0.000000e+00 0.000000e+00
1
Step 350000
Ar 1.110608e+00 0.000000e+00 0.000000e+00
1
Step 351000
Ar 1.045342e+00 0.000000e+00 0.000000e+00
1
Step 352000
Ar 1.097300e+00 0.000000e+00 0.000000e+00
1
Step 353000
Ar 9.766977e-01 0.000000e+00 0.000000e+00
1
Step 354000
Ar 1.041012e+00 0.000000e+00 0.000000e+00
1
Step 355000
Ar 1.040316e+00 0.000000e+00 0.000000e+00
1
Step 356000
Ar 1.121627e+00 0.000000e+00 0.000000e+00
1
Step 357000
Ar 1.062782e+00 0.000000e+00 0.000000e+00
1
Step 358000
Ar 8.831025e-01 0.000000e+00 0.000000e+00
1
Step 359000
Ar 8.727534e-01 0.000000e+00 0.000000e+00
1
Step 360000
Ar 1.007499e+00 0.000000e+00 0.000000e+00
1
Step 361000
Ar 9.096741e-01 0.000000e+00 0.000000e+00
1
Step 362000
Ar 1.097875e+00 0.000000e+00 0.000000e+00
1
Step 363000
Ar 1.135939e+00 0.000000e+00 0.000000e+00
1
Step 364000
Ar 9.427163e-01 0.000000e+00 0.000000e+00
1
Step 365000
Ar 7.994097e-01 0.000000e+00 0.000000e+00
1
Step 366000
Ar 8.668820e-01 0.000000e+00 0.000000e+00
1
Step 367000
Ar 1.139005e+00 0.000000e+00 0.000000e+00
1
Step 368000
Ar 1.128149e+00 0.000000e+00 0.000000e+00
1
Step 369000
Ar 1.055415e+00 0.000000e+00 0.000000e+00
1
Step 370000
Ar 7.932637e-01 0.000000e+00 0.000000e+00
1
Step 371000
Ar 7.843737e-01 0.000000e+00 0.000000e+00
1
Step 372000
Ar 7.881926e-01 0.000000e+00 0.000000e+00
1
Step 373000
Ar 7.894181e-01 0.000000e+00 0.000000e+00
1
Step 374000
Ar 1.152550e+00 0.000000e+00 0.000000e+00
1
Step 375000
Ar 9.274622e-01 0.000000e+00 0.000000e+00
1
Step 376000
Ar 7.595547e-01 0.000000e+00 0.000000e+00
1
Step 377000
Ar 1.018399e+00 0.000000e+00 0.000000e+00
1
Step 378000
Ar 9.206818e-01 0.000000e+00 0.000000e+00
1
Step 379000
Ar 9.184775e-01 0.000000e+00 0.000000e+00
1
Step 380000
Ar 9.183003e-01 0.000000e+00 0.000000e+00
1
Step 381000
Ar 8.812257e-01 0.000000e+00 0.000000e+00
1
Step 382000
Ar 1.073996e+00 0.000000e+00 0.000000e+00
1
Step 383000
Ar 8.624720e-01 0.000000e+00 0.000000e+00
1
Step 384000
Ar 1.019919e+00 0.000000e+00 0.000000e+00
1
Step 385000
Ar 9.589153e-01 0.000000e+00 0.000000e+00
1
Step 386000
Ar 7.874699e-01 0.000000e+00 0.000000e+00
1
Step 387000
Ar 7.828296e-01 0.000000e+00 0.000000e+00
1
Step 388000
Ar 1.056060e+00 0.000000e+00 0.000000e+00
1
Step 389000
Ar 1.063857e+00 0.000000e+00 0.000000e+00
1
Step 390000
Ar 1.081713e+00 0.000000e+00 0.000000e+00
1
Step 391000
Ar 1.096795e+00 0.000000e+00 0.000000e+00
1
Step 392000
Ar 1.090292e+00 0.000000e+00 0.000000e+00
1
Step 393000
Ar 1.097716e+00 0.000000e+00 0.000000e+00
1
Step 394000
Ar 1.093239e+00 0.000000e+00 0.000000e+00
1
Step 395000
Ar 1.088945e+00 0.000000e+00 0.000000e+00
1
Step 396000
Ar 8.407151e-01 0.000000e+00 0.000000e+00
1
Step 397000
Ar 1.044827e+00 0.000000e+00 0.000000e+00
1
Step 398000
Ar 8.106169e-01 0.000000e+00 0.000000e+00
1
Step 399000
Ar 7.658241e-01 0.000000e+00 0.000000e+00
1
Step 400000
Ar 1.102893e+00 0.000000e+00 0.000000e+00
1
Step 401000
Ar 8.354709e-01 0.000000e+00 0.000000e+00
1
Step 402000
Ar 8.735121e-01 0.000000e+00 0.000000e+00
1
Step 403000
Ar 1.169081e+00 0.000000e+00 0.000000e+00
1
Step 404000
Ar 8.811689e-01 0.000000e+00 0.000000e+00
1
Step 405000
Ar 9.036898e-01 0.000000e+00 0.000000e+00
1
Step 406000
Ar 1.067998e+00 0.000000e+00 0.000000e+00
1
Step 407000
Ar 1.120856e+00 0.000000e+00 0.000000e+00
1
Step 408000
Ar 1.119313e+00 0.000000e+00 0.000000e+00
1
Step 409000
Ar 1.119931e+00 0.000000e+00 0.000000e+00
1
Step 410000
Ar 1.122010e+00 0.000000e+00 0.000000e+00
1
Step 411000
Ar 1.114507e+00 0.000000e+00 0.000000e+00
1
Step 412000
Ar 1.113009e+00 0.000000e+00 0.000000e+00
1
Step 413000
Ar 1.111736e+00 0.000000e+00 0.000000e+00
1
Step 414000
Ar 1.189044e+00 0.000000e+00 0.000000e+00
1
Step 415000
Ar 1.202467e+00 0.000000e+00 0.000000e+00
1
Step 416000
Ar 9.739885e-01 0.000000e+00 0.000000e+00
1
Step 417000
Ar 8.801408e-01 0.000000e+00 0.000000e+00
1
Step 418000
Ar 8.853817e-01 0.000000e+00 0.000000e+00
1
Step 419000
Ar 8.852015e-01 0.000000e+00 0.000000e+00
1
Step 420000
Ar 8.802650e-01 0.000000e+00 0.000000e+00
1
Step 421000
Ar 8.428764e-01 0.000000e+00 0.000000e+00
1
Step 422000
Ar 8.434961e-01 0.000000e+00 0.000000e+00
1
Step 423000
Ar 8.456265e-01 0.000000e+00 0.000000e+00
1
Step 424000
Ar 8.407903e-01 0.000000e+00 0.000000e+00
1
Step 425000
Ar 8.341114e-01 0.000000e+00 0.000000e+00
1
Step 426000
Ar 1.070401e+00 0.000000e+00 0.000000e+00
1
Step 427000
Ar -1.006004e+00 0.000000e+00 0.000000e+00
1
Step 428000
Ar -1.012636e+00 0.000000e+00 0.000000e+00
1
Step 429000
Ar -1.015929e+00 0.000000e+00 0.000000e+00
1
Step 430000
Ar -9.899459e-01 0.000000e+00 0.000000e+00
1
Step 431000
Ar -1.008165e+00 0.000000e+00 0.000000e+00
1
Step 432000
Ar -1.004439e+00 0.000000e+00 0.000000e+00
1
Step 433000
Ar -1.008678e+00 0.000000e+00 0.000000e+00
1
Step 434000
Ar -1.003680e+00 0.000000e+00 0.000000e+00
1
Step 435000
Ar -1.013956e+00 0.000000e+00 0.000000e+00
1
Step 436000
Ar -9.770092e-01 0.000000e+00 0.000000e+00
1
Step 437000
Ar -9.726534e-01 0.000000e+00 0.000000e+00
1
Step 438000
Ar -9.764430e-01 0.000000e+00 0.000000e+00
1
Step 439000
Ar -9.795336e-01 0.000000e+00 0.000000e+00
1
Step 440000
Ar -9.783429e-01 0.000000e+00 0.000000e+00
1
Step 441000
Ar -9.624466e-01 0.000000e+00 0.000000e+00
1
Step 442000
Ar -9.580538e-01 0.000000e+00 0.000000e+00
1
Step 443000
Ar -9.574009e-01 0.000000e+00 0.000000e+00
1
Step 444000
Ar -9.621692e-01 0.000000e+00 0.000000e+00
1
Step 445000
Ar -9.655864e-01 0.000000e+00 0.000000e+00
1
Step 446000
Ar -9.542704e-01 0.000000e+00 0.000000e+00
1
Step 447000
Ar -9.491737e-01 0.000000e+00 0.000000e+00
1
Step 448000
Ar -9.542291e-01 0.000000e+00 0.000000e+00
1
Step 449000
Ar -9.473364e-01 0.000000e+00 0.000000e+00
1
Step 450000
Ar -9.550148e-01 0.000000e+00 0.000000e+00
1
Step 451000
Ar -1.032921e+00 0.000000e+00 0.000000e+00
1
Step 452000
Ar -1.032359e+00 0.000000e+00 0.000000e+00
1
Step 453000
Ar -1.024256e+00 0.000000e+00 0.000000e+00
1
Step 454000
Ar -1.028504e+00 0.000000e+00 0.000000e+00
1
Step 455000
Ar -1.026396e+00 0.000000e+00 0.000000e+00
1
Step 456000
Ar -1.003443e+00 0.000000e+00 0.000000e+00
1
Step 457000
Ar -1.001281e+00 0.000000e+00 0.000000e+00
1
Step 458000
Ar -9.990193e-01 0.000000e+00 0.000000e+00
1
Step 459000
Ar -1.000422e+00 0.000000e+00 0.000000e+00
1
Step 460000
Ar -1.001088e+00 0.000000e+00 0.000000e+00
1
Step 461000
Ar -1.034502e+00 0.000000e+00 0.000000e+00
1
Step 462000
Ar -1.034364e+00 0.000000e+00 0.000000e+00
1
Step 463000
Ar -1.046595e+00 0.000000e+00 0.000000e+00
1
Step 464000
Ar -1.044792e+00 0.000000e+00 0.000000e+00
1
Step 465000
Ar -1.035554e+00 0.000000e+00 0.000000e+00
1
Step 466000
Ar -1.046255e+00 0.000000e+00 0.000000e+00
1
Step 467000
Ar -1.048592e+00 0.000000e+00 0.000000e+00
1
Step 468000
Ar -1.050738e+00 0.000000e+00 0.000000e+00
1
Step 469000
Ar -1.047770e+00 0.000000e+00 0.000000e+00
1
Step 470000
Ar -1.045973e+00 0.000000e+00 0.000000e+00
1
Step 471000
Ar -9.412775e-01 0.000000e+00 0.000000e+00
1
Step 472000
Ar -9.438312e-01 0.000000e+00 0.000000e+00
1
Step 473000
Ar -9.419663e-01 0.000000e+00 0.000000e+00
1
Step 474000
Ar -9.438317e-01 0.000000e+00 0.000000e+00
1
Step 475000
Ar -9.442933e-01 0.000000e+00 0.000000e+00
1
Step 476000
Ar -9.298963e-01 0.000000e+00 0.000000e+00
1
Step 477000
Ar -9.260108e-01 0.000000e+00 0.000000e+00
1
Step 478000
Ar -9.292499e-01 0.000000e+00 0.000000e+00
1
Step 479000
Ar -9.303908e-01 0.000000e+00 0.000000e+00
1
Step 480000
Ar -9.327811e-01 0.000000e+00 0.000000e+00
1
Step 481000
Ar -9.880391e-01 0.000000e+00 0.000000e+00
1
Step 482000
Ar -1.013342e+00 0.000000e+00 0.000000e+00
1
Step 483000
Ar -1.006928e+00 0.000000e+00 0.000000e+00
1
Step 484000
Ar -1.006404e+00 0.000000e+00 0.000000e+00
1
Step 485000
Ar -1.020162e+00 0.000000e+00 0.000000e+00
1
Step 486000
Ar -9.206361e-01 0.000000e+00 0.000000e+00
1
Step 487000
Ar -9.165742e-01 0.000000e+00 0.000000e+00
1
Step 488000
Ar -9.201619e-01 0.000000e+00 0.000000e+00
1
Step 489000
Ar -9.202321e-01 0.000000e+00 0.000000e+00
1
Step 490000
Ar -9.188957e-01 0.000000e+00 0.000000e+00
1
Step 491000
Ar -1.004995e+00 0.000000e+00 0.000000e+00
1
Step 492000
Ar -1.006605e+00 0.000000e+00 0.000000e+00
1
Step 493000
Ar -1.005379e+00 0.000000e+00 0.000000e+00
1
Step 494000
Ar -9.909714e-01 0.000000e+00 0.000000e+00
1
Step 495000
Ar -1.055018e+00 0.000000e+00 0.000000e+00
1
Step 496000
Ar -1.064251e+00 0.000000e+00 0.000000e+00
1
Step 497000
Ar -1.066290e+00 0.000000e+00 0.000000e+00
1
Step 498000
Ar -1.066396e+00 0.000000e+00 0.000000e+00
1
Step 499000
Ar -1.063144e+00 0.000000e+00 0.000000e+00
1
Step 500000
Ar -1.063317e+00 0.000000e+00 0.000000e+00
1
Step 501000
Ar -1.045953e+00 0.000000e+00 0.000000e+00
1
Step 502000
Ar -1.036227e+00 0.000000e+00 0.000000e+00
1
Step 503000
Ar -1.035757e+00 0.000000e+00 0.000000e+00
1
Step 504000
Ar -1.035115e+00 0.000000e+00 0.000000e+00
1
Step 505000
Ar -9.564021e-01 0.000000e+00 0.000000e+00
1
Step 506000
Ar -9.276483e-01 0.000000e+00 0.000000e+00
1
Step 507000
Ar -9.388338e-01 0.000000e+00 0.000000e+00
1
Step 508000
Ar -9.104929e-01 0.000000e+00 0.000000e+00
1
Step 509000
Ar -9.049471e-01 0.000000e+00 0.000000e+00
1
Step 510000
Ar -9.073770e-01 0.000000e+00 0.000000e+00
1
Step 511000
Ar -1.005638e+00 0.000000e+00 0.000000e+00
1
Step 512000
Ar -1.007897e+00 0.000000e+00 0.000000e+00
1
Step 513000
Ar -1.003165e+00 0.000000e+00 0.000000e+00
1
Step 514000
Ar -9.873018e-01 0.000000e+00 0.000000e+00
1
Step 515000
Ar -9.719151e-01 0.000000e+00 0.000000e+00
1
Step 516000
Ar -1.073766e+00 0.000000e+00 0.000000e+00
1
Step 517000
Ar -1.074866e+00 0.000000e+00 0.000000e+00
1
Step 518000
Ar -1.076099e+00 0.000000e+00 0.000000e+00
1
Step 519000
Ar -1.075620e+00 0.000000e+00 0.000000e+00
1
Step 520000
Ar -1.076646e+00 0.000000e+00 0.000000e+00
1
Step 521000
Ar -1.007168e+00 0.000000e+00 0.000000e+00
1
Step 522000
Ar -9.894094e-01 0.000000e+00 0.000000e+00
1
Step 523000
Ar -9.285918e-01 0.000000e+00 0.000000e+00
1
Step 524000
Ar -9.933202e-01 0.000000e+00 0.000000e+00
1
Step 525000
Ar -1.005963e+00 0.000000e+00 0.000000e+00
1
Step 526000
Ar -9.867442e-01 0.000000e+00 0.000000e+00
1
Step 527000
Ar -9.855267e-01 0.000000e+00 0.000000e+00
1
Step 528000
Ar -9.961979e-01 0.000000e+00 0.000000e+00
1
Step 529000
Ar -9.928163e-01 0.000000e+00 0.000000e+00
1
Step 530000
Ar -9.926089e-01 0.000000e+00 0.000000e+00
1
Step 531000
Ar -9.489199e-01 0.000000e+00 0.000000e+00
1
Step 532000
Ar -9.428403e-01 0.000000e+00 0.000000e+00
1
Step 533000
Ar -9.400895e-01 0.000000e+00 0.000000e+00
1
Step 534000
Ar -9.410751e-01 0.000000e+00 0.000000e+00
1
Step 535000
Ar -9.430717e-01 0.000000e+00 0.000000e+00
1
Step 536000
Ar -1.039183e+00 0.000000e+00 0.000000e+00
1
Step 537000
Ar -1.031647e+00 0.000000e+00 0.000000e+00
1
Step 538000
Ar -1.034621e+00 0.000000e+00 0.000000e+00
1
Step 539000
Ar -1.031666e+00 0.000000e+00 0.000000e+00
1
Step 540000
Ar -1.031175e+00 0.000000e+00 0.000000e+00
1
Step 541000
Ar -1.010297e+00 0.000000e+00 0.000000e+00
1
Step 542000
Ar -9.985082e-01 0.000000e+00 0.000000e+00
1
Step 543000
Ar -1.014394e+00 0.000000e+00 0.000000e+00
1
Step 544000
Ar -8.696724e-01 0.000000e+00 0.000000e+00
1
Step 545000
Ar -1.081450e+00 0.000000e+00 0.000000e+00
1
Step 546000
Ar -1.092668e+00 0.000000e+00 0.000000e+00
1
Step 547000
Ar -1.090192e+00 0.000000e+00 0.000000e+00
1
Step 548000
Ar -1.093372e+00 0.000000e+00 0.000000e+00
1
Step 549000
Ar -1.092385e+00 0.000000e+00 0.000000e+00
1
Step 550000
Ar -1.092482e+00 0.000000e+00 0.000000e+00
1
Step 551000
Ar -1.103305e+00 0.000000e+00 0.000000e+00
1
Step 552000
Ar -1.110317e+00 0.000000e+00 0.000000e+00
1
Step 553000
Ar -8.970363e-01 0.000000e+00 0.000000e+00
1
Step 554000
Ar -9.010720e-01 0.000000e+00 0.000000e+00
1
Step 555000
Ar -8.950904e-01 0.000000e+00 0.000000e+00
1
Step 556000
Ar -1.098972e+00 0.000000e+00 0.000000e+00
1
Step 557000
Ar -1.042277e+00 0.000000e+00 0.000000e+00
1
Step 558000
Ar -1.039770e+00 0.000000e+00 0.000000e+00
1
Step 559000
Ar -1.037294e+00 0.000000e+00 0.000000e+00
1
Step 560000
Ar -8.826215e-01 0.000000e+00 0.000000e+00
1
Step 561000
Ar -1.009345e+00 0.000000e+00 0.000000e+00
1
Step 562000
Ar -1.012141e+00 0.000000e+00 0.000000e+00
1
Step 563000
Ar -1.011155e+00 0.000000e+00 0.000000e+00
1
Step 564000
Ar -1.011709e+00 0.000000e+00 0.000000e+00
1
Step 565000
Ar -9.988727e-01 0.000000e+00 0.000000e+00
1
Step 566000
Ar -1.010731e+00 0.000000e+00 0.000000e+00
1
Step 567000
Ar -1.012617e+00 0.000000e+00 0.000000e+00
1
Step 568000
Ar -1.009318e+00 0.000000e+00 0.000000e+00
1
Step 569000
Ar -1.137097e+00 0.000000e+00 0.000000e+00
1
Step 570000
Ar -1.010245e+00 0.000000e+00 0.000000e+00
1
Step 571000
Ar -9.262465e-01 0.000000e+00 0.000000e+00
1
Step 572000
Ar -1.184850e+00 0.000000e+00 0.000000e+00
1
Step 573000
Ar -1.100228e+00 0.000000e+00 0.000000e+00
1
Step 574000
Ar -1.020734e+00 0.000000e+00 0.000000e+00
1
Step 575000
Ar -1.021655e+00 0.000000e+00 0.000000e+00
1
Step 576000
Ar -1.039455e+00 0.000000e+00 0.000000e+00
1
Step 577000
Ar -1.003166e+00 0.000000e+00 0.000000e+00
1
Step 578000
Ar -9.860975e-01 0.000000e+00 0.000000e+00
1
Step 579000
Ar -8.750677e-01 0.000000e+00 0.000000e+00
1
Step 580000
Ar -8.732756e-01 0.000000e+00 0.000000e+00
1
Step 581000
Ar -8.271971e-01 0.000000e+00 0.000000e+00
1
Step 582000
Ar -9.286311e-01 0.000000e+00 0.000000e+00
1
Step 583000
Ar -1.053126e+00 0.000000e+00 0.000000e+00
1
Step 584000
Ar -1.049313e+00 0.000000e+00 0.000000e+00
1
Step 585000
Ar -1.170038e+00 0.000000e+00 0.000000e+00
1
Step 586000
Ar -1.029681e+00 0.000000e+00 0.000000e+00
1
Step 587000
Ar -1.038525e+00 0.000000e+00 0.000000e+00
1
Step 588000
Ar -1.075496e+00 0.000000e+00 0.000000e+00
1
Step 589000
Ar -1.069265e+00 0.000000e+00 0.000000e+00
1
Step 590000
Ar -9.116646e-01 0.000000e+00 0.000000e+00
1
Step 591000
Ar -1.048436e+00 0.000000e+00 0.000000e+00
1
Step 592000
Ar -1.028135e+00 0.000000e+00 0.000000e+00
1
Step 593000
Ar -1.037182e+00 0.000000e+00 0.000000e+00
1
Step 594000
Ar -8.947088e-01 0.000000e+00 0.000000e+00
1
Step 595000
Ar -9.221247e-01 0.000000e+00 0.000000e+00
1
Step 596000
Ar -1.042376e+00 0.000000e+00 0.000000e+00
1
Step 597000
Ar -9.937027e-01 0.000000e+00 0.000000e+00
1
Step 598000
Ar -1.041505e+00 0.000000e+00 0.000000e+00
1
Step 599000
Ar -1.040420e+00 0.000000e+00 0.000000e+00
1
Step 600000
Ar -1.035726e+00 0.000000e+00 0.000000e+00
1
Step 601000
Ar -9.356154e-01 0.000000e+00 0.000000e+00
1
Step 602000
Ar -9.387994e-01 0.000000e+00 0.000000e+00
1
Step 603000
Ar -9.871944e-01 0.000000e+00 0.000000e+00
1
Step 604000
Ar -1.066753e+00 0.000000e+00 0.000000e+00
1
Step 605000
Ar -9.325071e-01 0.000000e+00 0.000000e+00
1
Step 606000
Ar -1.047758e+00 0.000000e+00 0.000000e+00
1
Step 607000
Ar -1.046268e+00 0.000000e+00 0.000000e+00
1
Step 608000
Ar -1.044187e+00 0.000000e+00 0.000000e+00
1
Step 609000
Ar -1.046617e+00 0.000000e+00 0.000000e+00
1
Step 610000
Ar -1.057796e+00 0.000000e+00 0.000000e+00
1
Step 611000
Ar -8.657540e-01 0.000000e+00 0.000000e+00
1
Step 612000
Ar -8.626984e-01 0.000000e+00 0.000000e+00
1
Step 613000
Ar -8.632058e-01 0.000000e+00 0.000000e+00
1
Step 614000
Ar -8.679213e-01 0.000000e+00 0.000000e+00
1
Step 615000
Ar -8.666664e-01 0.000000e+00 0.000000e+00
1
Step 616000
Ar -8.664273e-01 0.000000e+00 0.000000e+00
1
Step 617000
Ar -1.047125e+00 0.000000e+00 0.000000e+00
1
Step 618000
Ar -1.044748e+00 0.000000e+00 0.000000e+00
1
Step 619000
Ar -1.045126e+00 0.000000e+00 0.000000e+00
1
Step 620000
Ar -1.043821e+00 0.000000e+00 0.000000e+00
1
Step 621000
Ar -1.099463e+00 0.000000e+00 0.000000e+00
1
Step 622000
Ar -8.558433e-01 0.000000e+00 0.000000e+00
1
Step 623000
Ar -8.572659e-01 0.000000e+00 0.000000e+00
1
Step 624000
Ar -8.570113e-01 0.000000e+00 0.000000e+00
1
Step 625000
Ar -8.558339e-01 0.000000e+00 0.000000e+00
1
Step 626000
Ar -7.825983e-01 0.000000e+00 0.000000e+00
1
Step 627000
Ar -1.029493e+00 0.000000e+00 0.000000e+00
1
Step 628000
Ar -9.736857e-01 0.000000e+00 0.000000e+00
1
Step 629000
Ar -8.059931e-01 0.000000e+00 0.000000e+00
1
Step 630000
Ar -8.485221e-01 0.000000e+00 0.000000e+00
1
Step 631000
Ar -1.050229e+00 0.000000e+00 0.000000e+00
1
Step 632000
Ar -8.925726e-01 0.000000e+00 0.000000e+00
1
Step 633000
Ar -9.917105e-01 0.000000e+00 0.000000e+00
1
Step 634000
Ar -1.142943e+00 0.000000e+00 0.000000e+00
1
Step 635000
Ar -1.019627e+00 0.000000e+00 0.000000e+00
1
Step 636000
Ar -1.050185e+00 0.000000e+00 0.000000e+00
1
Step 637000
Ar -1.026021e+00 0.000000e+00 0.000000e+00
1
Step 638000
Ar -1.023905e+00 0.000000e+00 0.000000e+00
1
Step 639000
Ar -8.984959e-01 0.000000e+00 0.000000e+00
1
Step 640000
Ar -1.099962e+00 0.000000e+00 0.000000e+00
1
Step 641000
Ar -1.110424e+00 0.000000e+00 0.000000e+00
1
Step 642000
Ar -1.107539e+00 0.000000e+00 0.000000e+00
1
Step 643000
Ar -1.019668e+00 0.000000e+00 0.000000e+00
1
Step 644000
Ar -1.102418e+00 0.000000e+00 0.000000e+00
1
Step 645000
Ar -8.145838e-01 0.000000e+00 0.000000e+00
1
Step 646000
Ar -8.390730e-01 0.000000e+00 0.000000e+00
1
Step 647000
Ar -8.428194e-01 0.000000e+00 0.000000e+00
1
Step 648000
Ar -8.346822e-01 0.000000e+00 0.000000e+00
1
Step 649000
Ar -9.967014e-01 0.000000e+00 0.000000e+00
1
Step 650000
Ar -1.112035e+00 0.000000e+00 0.000000e+00
1
Step 651000