1
Step 120000
Ar 8.569697e-01 0.000000e+00 0.000000e+00
1
Step 121000
Ar 1.079283e+00 0.000000e+00 0.000000e+00
1
Step 122000
Ar 1.144276e+00 0.000000e+00 0.000000e+00
1
Step 123000
Ar 7.627226e-01 0.000000e+00 0.000000e+00
1
Step 124000
Ar 8.560335e-01 0.000000e+00 0.000000e+00
1
Step 125000
Ar 1.154156e+00 0.000000e+00 0.000000e+00
1
Step 126000
Ar 1.223177e+00 0.000000e+00 0.000000e+00
1
Step 127000
Ar 1.273839e+00 0.000000e+00 0.000000e+00
1
Step 128000
Ar 1.201622e+00 0.000000e+00 0.000000e+00
1
Step 129000
Ar 1.216075e+00 0.000000e+00 0.000000e+00
1
Step 130000
Ar 1.196176e+00 0.000000e+00 0.000000e+00
1
Step 131000
Ar 1.249712e+00 0.000000e+00 0.000000e+00
1
Step 132000
Ar 1.257423e+00 0.000000e+00 0.000000e+00
1
Step 133000
Ar 1.265071e+00 0.000000e+00 0.000000e+00
1
Step 134000
Ar 1.226605e+00 0.000000e+00 0.000000e+00
1
Step 135000
Ar 1.206920e+00 0.000000e+00 0.000000e+00
1
Step 136000
Ar 1.249813e+00 0.000000e+00 0.000000e+00
1
Step 137000
Ar 1.223247e+00 0.000000e+00 0.000000e+00
1
Step 138000
Ar 1.255793e+00 0.000000e+00 0.000000e+00
1
Step 139000
Ar 1.234711e+00 0.000000e+00 0.000000e+00
1
Step 140000
Ar 1.296734e+00 0.000000e+00 0.000000e+00
1
Step 141000
Ar 1.250944e+00 0.000000e+00 0.000000e+00
1
Step 142000
Ar 1.287314e+00 0.000000e+00 0.000000e+00
1
Step 143000
Ar 1.252898e+00 0.000000e+00 0.000000e+00
1
Step 144000
Ar 1.232209e+00 0.000000e+00 0.000000e+00
1
Step 145000
Ar 1.230252e+00 0.000000e+00 0.000000e+00
1
Step 146000
Ar 1.270203e+00 0.000000e+00 0.000000e+00
1
Step 147000
Ar 1.275907e+00 0.000000e+00 0.000000e+00
1
Step 148000
Ar 1.246792e+00 0.000000e+00 0.000000e+00
1
Step 149000
Ar 1.254076e+00 0.000000e+00 0.000000e+00
1
Step 150000
Ar 1.260536e+00 0.000000e+00 0.000000e+00
1
Step 151000
Ar 8.708193e-01 0.000000e+00 0.000000e+00
1
Step 152000
Ar 8.671495e-01 0.000000e+00 0.000000e+00
1
Step 153000
Ar 8.766923e-01 0.000000e+00 0.000000e+00
1
Step 154000
Ar 1.056882e+00 0.000000e+00 0.000000e+00
1
Step 155000
Ar 1.089601e+00 0.000000e+00 0.000000e+00
1
Step 156000
Ar 1.116440e+00 0.000000e+00 0.000000e+00
1
Step 157000
Ar 1.107564e+00 0.000000e+00 0.000000e+00
1
Step 158000
Ar 1.101659e+00 0.000000e+00 0.000000e+00
1
Step 159000
Ar 1.129699e+00 0.000000e+00 0.000000e+00
1
Step 160000
Ar 1.122881e+00 0.000000e+00 0.000000e+00
1
Step 161000
Ar 1.135341e+00 0.000000e+00 0.000000e+00
1
Step 162000
Ar 1.135546e+00 0.000000e+00 0.000000e+00
1
Step 163000
Ar 1.136364e+00 0.000000e+00 0.000000e+00
1
Step 164000
Ar 1.137839e+00 0.000000e+00 0.000000e+00
1
Step 165000
Ar 1.132915e+00 0.000000e+00 0.000000e+00
1
Step 166000
Ar 9.568505e-01 0.000000e+00 0.000000e+00
1
Step 167000
Ar 9.400946e-01 0.000000e+00 0.000000e+00
1
Step 168000
Ar 9.253026e-01 0.000000e+00 0.000000e+00
1
Step 169000
Ar 1.010391e+00 0.000000e+00 0.000000e+00
1
Step 170000
Ar 1.016795e+00 0.000000e+00 0.000000e+00
1
Step 171000
Ar 1.037728e+00 0.000000e+00 0.000000e+00
1
Step 172000
Ar 1.035180e+00 0.000000e+00 0.000000e+00
1
Step 173000
Ar 1.030126e+00 0.000000e+00 0.000000e+00
1
Step 174000
Ar 1.058165e+00 0.000000e+00 0.000000e+00
1
Step 175000
Ar 1.071049e+00 0.000000e+00 0.000000e+00
1
Step 176000
Ar 1.052241e+00 0.000000e+00 0.000000e+00
1
Step 177000
Ar 1.029351e+00 0.000000e+00 0.000000e+00
1
Step 178000
Ar 1.031251e+00 0.000000e+00 0.000000e+00
1
Step 179000
Ar 1.037675e+00 0.000000e+00 0.000000e+00
1
Step 180000
Ar 1.040897e+00 0.000000e+00 0.000000e+00
1
Step 181000
Ar 1.027346e+00 0.000000e+00 0.000000e+00
1
Step 182000
Ar 1.027004e+00 0.000000e+00 0.000000e+00
1
Step 183000
Ar 1.029250e+00 0.000000e+00 0.000000e+00
1
Step 184000
Ar 1.028087e+00 0.000000e+00 0.000000e+00
1
Step 185000
Ar 1.029189e+00 0.000000e+00 0.000000e+00
1
Step 186000
Ar 8.867622e-01 0.000000e+00 0.000000e+00
1
Step 187000
Ar 8.952080e-01 0.000000e+00 0.000000e+00
1
Step 188000
Ar 7.768740e-01 0.000000e+00 0.000000e+00
1
Step 189000
Ar 8.342924e-01 0.000000e+00 0.000000e+00
1
Step 190000
Ar 9.826000e-01 0.000000e+00 0.000000e+00
1
Step 191000
Ar 1.171691e+00 0.000000e+00 0.000000e+00
1
Step 192000
Ar 1.169422e+00 0.000000e+00 0.000000e+00
1
Step 193000
Ar 1.173547e+00 0.000000e+00 0.000000e+00
1
Step 194000
Ar 1.176474e+00 0.000000e+00 0.000000e+00
1
Step 195000
Ar 1.175837e+00 0.000000e+00 0.000000e+00
1
Step 196000
Ar 9.048394e-01 0.000000e+00 0.000000e+00
1
Step 197000
Ar 8.889234e-01 0.000000e+00 0.000000e+00
1
Step 198000
Ar 7.623810e-01 0.000000e+00 0.000000e+00
1
Step 199000
Ar 8.628473e-01 0.000000e+00 0.000000e+00
1
Step 200000
Ar 9.451058e-01 0.000000e+00 0.000000e+00
1
Step 201000
Ar 9.017605e-01 0.000000e+00 0.000000e+00
1
Step 202000
Ar 8.988666e-01 0.000000e+00 0.000000e+00
1
Step 203000
Ar 9.024552e-01 0.000000e+00 0.000000e+00
1
Step 204000
Ar 7.538426e-01 0.000000e+00 0.000000e+00
1
Step 205000
Ar 7.264923e-01 0.000000e+00 0.000000e+00
1
Step 206000
Ar 8.981458e-01 0.000000e+00 0.000000e+00
1
Step 207000
Ar 9.131221e-01 0.000000e+00 0.000000e+00
1
Step 208000
Ar 8.791462e-01 0.000000e+00 0.000000e+00
1
Step 209000
Ar 8.952620e-01 0.000000e+00 0.000000e+00
1
Step 210000
Ar 9.236663e-01 0.000000e+00 0.000000e+00
1
Step 211000
Ar 9.942944e-01 0.000000e+00 0.000000e+00
1
Step 212000
Ar 9.968507e-01 0.000000e+00 0.000000e+00
1
Step 213000
Ar 1.000585e+00 0.000000e+00 0.000000e+00
1
Step 214000
Ar 1.001360e+00 0.000000e+00 0.000000e+00
1
Step 215000
Ar 1.003831e+00 0.000000e+00 0.000000e+00
1
Step 216000
Ar 9.577827e-01 0.000000e+00 0.000000e+00
1
Step 217000
Ar 9.626282e-01 0.000000e+00 0.000000e+00
1
Step 218000
Ar 9.519010e-01 0.000000e+00 0.000000e+00
1
Step 219000
Ar 9.673019e-01 0.000000e+00 0.000000e+00
1
Step 220000
Ar 9.621990e-01 0.000000e+00 0.000000e+00
1
Step 221000
Ar 1.056002e+00 0.000000e+00 0.000000e+00
1
Step 222000
Ar 1.048332e+00 0.000000e+00 0.000000e+00
1
Step 223000
Ar 1.055913e+00 0.000000e+00 0.000000e+00
1
Step 224000
Ar 1.053518e+00 0.000000e+00 0.000000e+00
1
Step 225000
Ar 1.061933e+00 0.000000e+00 0.000000e+00
1
Step 226000
Ar 7.797682e-01 0.000000e+00 0.000000e+00
1
Step 227000
Ar 8.703331e-01 0.000000e+00 0.000000e+00
1
Step 228000
Ar 7.462787e-01 0.000000e+00 0.000000e+00
1
Step 229000
Ar 9.040094e-01 0.000000e+00 0.000000e+00
1
Step 230000
Ar 8.785318e-01 0.000000e+00 0.000000e+00
1
Step 231000
Ar 8.407850e-01 0.000000e+00 0.000000e+00
1
Step 232000
Ar 8.410660e-01 0.000000e+00 0.000000e+00
1
Step 233000
Ar 8.279946e-01 0.000000e+00 0.000000e+00
1
Step 234000
Ar 8.476132e-01 0.000000e+00 0.000000e+00
1
Step 235000
Ar 8.428359e-01 0.000000e+00 0.000000e+00
1
Step 236000
Ar 8.262013e-01 0.000000e+00 0.000000e+00
1
Step 237000
Ar 7.678080e-01 0.000000e+00 0.000000e+00
1
Step 238000
Ar 7.627616e-01 0.000000e+00 0.000000e+00
1
Step 239000
Ar 7.959873e-01 0.000000e+00 0.000000e+00
1
Step 240000
Ar 7.438711e-01 0.000000e+00 0.000000e+00
1
Step 241000
Ar 8.666704e-01 0.000000e+00 0.000000e+00
1
Step 242000
Ar 8.636386e-01 0.000000e+00 0.000000e+00
1
Step 243000
Ar 8.522040e-01 0.000000e+00 0.000000e+00
1
Step 244000
Ar 8.616884e-01 0.000000e+00 0.000000e+00
1
Step 245000
Ar 8.578546e-01 0.000000e+00 0.000000e+00
1
Step 246000
Ar 9.925968e-01 0.000000e+00 0.000000e+00
1
Step 247000
Ar 9.940039e-01 0.000000e+00 0.000000e+00
1
Step 248000
Ar 9.938226e-01 0.000000e+00 0.000000e+00
1
Step 249000
Ar 9.918089e-01 0.000000e+00 0.000000e+00
1
Step 250000
Ar 9.920520e-01 0.000000e+00 0.000000e+00
1
Step 251000
Ar 9.055090e-01 0.000000e+00 0.000000e+00
1
Step 252000
Ar 8.920584e-01 0.000000e+00 0.000000e+00
1
Step 253000
Ar 8.938932e-01 0.000000e+00 0.000000e+00
1
Step 254000
Ar 9.013282e-01 0.000000e+00 0.000000e+00
1
Step 255000
Ar 9.120438e-01 0.000000e+00 0.000000e+00
1
Step 256000
Ar 9.026042e-01 0.000000e+00 0.000000e+00
1
Step 257000
Ar 8.906916e-01 0.000000e+00 0.000000e+00
1
Step 258000
Ar 8.960040e-01 0.000000e+00 0.000000e+00
1
Step 259000
Ar 8.881646e-01 0.000000e+00 0.000000e+00
1
Step 260000
Ar 9.001763e-01 0.000000e+00 0.000000e+00
1
Step 261000
Ar 7.846338e-01 0.000000e+00 0.000000e+00
1
Step 262000
Ar 7.561962e-01 0.000000e+00 0.000000e+00
1
Step 263000
Ar 7.783239e-01 0.000000e+00 0.000000e+00
1
Step 264000
Ar 7.934548e-01 0.000000e+00 0.000000e+00
1
Step 265000
Ar 7.836166e-01 0.000000e+00 0.000000e+00
1
Step 266000
Ar 6.971582e-01 0.000000e+00 0.000000e+00
1
Step 267000
Ar 6.069367e-01 0.000000e+00 0.000000e+00
1
Step 268000
Ar 7.072634e-01 0.000000e+00 0.000000e+00
1
Step 269000
Ar 7.128485e-01 0.000000e+00 0.000000e+00
1
Step 270000
Ar 6.512305e-01 0.000000e+00 0.000000e+00
1
Step 271000
Ar 6.897063e-01 0.000000e+00 0.000000e+00
1
Step 272000
Ar 6.948633e-01 0.000000e+00 0.000000e+00
1
Step 273000
Ar 7.023260e-01 0.000000e+00 0.000000e+00
1
Step 274000
Ar 6.915937e-01 0.000000e+00 0.000000e+00
1
Step 275000
Ar 7.155295e-01 0.000000e+00 0.000000e+00
1
Step 276000
Ar 1.282705e+00 0.000000e+00 0.000000e+00
1
Step 277000
Ar 1.276506e+00 0.000000e+00 0.000000e+00
1
Step 278000
Ar 1.287716e+00 0.000000e+00 0.000000e+00
1
Step 279000
Ar 1.283888e+00 0.000000e+00 0.000000e+00
1
Step 280000
Ar 1.281956e+00 0.000000e+00 0.000000e+00
1
Step 281000
Ar 1.269638e+00 0.000000e+00 0.000000e+00
1
Step 282000
Ar 1.269823e+00 0.000000e+00 0.000000e+00
1
Step 283000
Ar 1.266622e+00 0.000000e+00 0.000000e+00
1
Step 284000
Ar 1.272978e+00 0.000000e+00 0.000000e+00
1
Step 285000
Ar 1.270650e+00 0.000000e+00 0.000000e+00
1
Step 286000
Ar 8.238333e-01 0.000000e+00 0.000000e+00
1
Step 287000
Ar 8.072085e-01 0.000000e+00 0.000000e+00
1
Step 288000
Ar 8.139292e-01 0.000000e+00 0.000000e+00
1
Step 289000
Ar 8.156062e-01 0.000000e+00 0.000000e+00
1
Step 290000
Ar 8.054187e-01 0.000000e+00 0.000000e+00
1
Step 291000
Ar 8.200619e-01 0.000000e+00 0.000000e+00
1
Step 292000
Ar 8.200846e-01 0.000000e+00 0.000000e+00
1
Step 293000
Ar 8.263590e-01 0.000000e+00 0.000000e+00
1
Step 294000
Ar 8.152233e-01 0.000000e+00 0.000000e+00
1
Step 295000
Ar 8.198033e-01 0.000000e+00 0.000000e+00
1
Step 296000
Ar 9.729100e-01 0.000000e+00 0.000000e+00
1
Step 297000
Ar 9.701120e-01 0.000000e+00 0.000000e+00
1
Step 298000
Ar 9.694291e-01 0.000000e+00 0.000000e+00
1
Step 299000
Ar 9.667882e-01 0.000000e+00 0.000000e+00
1
Step 300000
Ar 8.328858e-01 0.000000e+00 0.000000e+00
1
Step 301000
Ar 7.973293e-01 0.000000e+00 0.000000e+00
1
Step 302000
Ar 7.946237e-01 0.000000e+00 0.000000e+00
1
Step 303000
Ar 7.964440e-01 0.000000e+00 0.000000e+00
1
Step 304000
Ar 8.016028e-01 0.000000e+00 0.000000e+00
1
Step 305000
Ar 8.659477e-01 0.000000e+00 0.000000e+00
1
Step 306000
Ar 8.903296e-01 0.000000e+00 0.000000e+00
1
Step 307000
Ar 8.911538e-01 0.000000e+00 0.000000e+00
1
Step 308000
Ar 8.909583e-01 0.000000e+00 0.000000e+00
1
Step 309000
Ar 8.889031e-01 0.000000e+00 0.000000e+00
1
Step 310000
Ar 8.879574e-01 0.000000e+00 0.000000e+00
1
Step 311000
Ar 9.520602e-01 0.000000e+00 0.000000e+00
1
Step 312000
Ar 7.267700e-01 0.000000e+00 0.000000e+00
1
Step 313000
Ar 5.474061e-01 0.000000e+00 0.000000e+00
1
Step 314000
Ar 6.230773e-01 0.000000e+00 0.000000e+00
1
Step 315000
Ar 6.368562e-01 0.000000e+00 0.000000e+00
1
Step 316000
Ar 1.102321e+00 0.000000e+00 0.000000e+00
1
Step 317000
Ar 1.104956e+00 0.000000e+00 0.000000e+00
1
Step 318000
Ar 1.108721e+00 0.000000e+00 0.000000e+00
1
Step 319000
Ar 1.103594e+00 0.000000e+00 0.000000e+00
1
Step 320000
Ar 1.106292e+00 0.000000e+00 0.000000e+00
1
Step 321000
Ar 1.143499e+00 0.000000e+00 0.000000e+00
1
Step 322000
Ar 1.166978e+00 0.000000e+00 0.000000e+00
1
Step 323000
Ar 1.163252e+00 0.000000e+00 0.000000e+00
1
Step 324000
Ar 1.166753e+00 0.000000e+00 0.000000e+00
1
Step 325000
Ar 1.163519e+00 0.000000e+00 0.000000e+00
1
Step 326000
Ar 1.249121e+00 0.000000e+00 0.000000e+00
1
Step 327000
Ar 1.248178e+00 0.000000e+00 0.000000e+00
1
Step 328000
Ar 1.243097e+00 0.000000e+00 0.000000e+00
1
Step 329000
Ar 1.246368e+00 0.000000e+00 0.000000e+00
1
Step 330000
Ar 1.241483e+00 0.000000e+00 0.000000e+00
1
Step 331000
Ar 1.328963e+00 0.000000e+00 0.000000e+00
1
Step 332000
Ar 1.341027e+00 0.000000e+00 0.000000e+00
1
Step 333000
Ar 1.318898e+00 0.000000e+00 0.000000e+00
1
Step 334000
Ar 1.328980e+00 0.000000e+00 0.000000e+00
1
Step 335000
Ar 1.333276e+00 0.000000e+00 0.000000e+00
1
Step 336000
Ar 1.360660e+00 0.000000e+00 0.000000e+00
1
Step 337000
Ar 1.355998e+00 0.000000e+00 0.000000e+00
1
Step 338000
Ar 1.376403e+00 0.000000e+00 0.000000e+00
1
Step 339000
Ar 1.346093e+00 0.000000e+00 0.000000e+00
1
Step 340000
Ar 1.351850e+00 0.000000e+00 0.000000e+00
1
Step 341000
Ar 1.375019e+00 0.000000e+00 0.000000e+00
1
Step 342000
Ar 1.402966e+00 0.000000e+00 0.000000e+00
1
Step 343000
Ar 1.401326e+00 0.000000e+00 0.000000e+00
1
Step 344000
Ar 1.391142e+00 0.000000e+00 0.000000e+00
1
Step 345000
Ar 1.378907e+00 0.000000e+00 0.000000e+00
1
Step 346000
Ar 1.409776e+00 0.000000e+00 0.000000e+00
1
Step 347000
Ar 1.392951e+00 0.000000e+00 0.000000e+00
1
Step 348000
Ar 1.406646e+00 0.000000e+00 0.000000e+00
1
Step 349000
Ar 1.397919e+00 0.000000e+00 0.000000e+00
1
Step 350000
Ar 1.395810e+00 0.000000e+00 0.000000e+00
1
Step 351000
Ar 1.371767e+00 0.000000e+00 0.000000e+00
1
Step 352000
Ar 1.366381e+00 0.000000e+00 0.000000e+00
1
Step 353000
Ar 1.365020e+00 0.000000e+00 0.000000e+00
1
Step 354000
Ar 1.369605e+00 0.000000e+00 0.000000e+00
1
Step 355000
Ar 1.369451e+00 0.000000e+00 0.000000e+00
1
Step 356000
Ar -1.007537e+00 0.000000e+00 0.000000e+00
1
Step 357000
Ar -9.878571e-01 0.000000e+00 0.000000e+00
1
Step 358000
Ar -1.111521e+00 0.000000e+00 0.000000e+00
1
Step 359000
Ar -1.096444e+00 0.000000e+00 0.000000e+00
1
Step 360000
Ar -9.166249e-01 0.000000e+00 0.000000e+00
1
Step 361000
Ar -1.044139e+00 0.000000e+00 0.000000e+00
1
Step 362000
Ar -9.372653e-01 0.000000e+00 0.000000e+00
1
Step 363000
Ar -1.028488e+00 0.000000e+00 0.000000e+00
1
Step 364000
Ar -1.137283e+00 0.000000e+00 0.000000e+00
1
Step 365000
Ar -9.862773e-01 0.000000e+00 0.000000e+00
1
Step 366000
Ar -9.621237e-01 0.000000e+00 0.000000e+00
1
Step 367000
Ar -9.322472e-01 0.000000e+00 0.000000e+00
1
Step 368000
Ar -9.459722e-01 0.000000e+00 0.000000e+00
1
Step 369000
Ar -9.408181e-01 0.000000e+00 0.000000e+00
1
Step 370000
Ar -9.508388e-01 0.000000e+00 0.000000e+00
1
Step 371000
Ar -9.679377e-01 0.000000e+00 0.000000e+00
1
Step 372000
Ar -9.602640e-01 0.000000e+00 0.000000e+00
1
Step 373000
Ar -9.652537e-01 0.000000e+00 0.000000e+00
1
Step 374000
Ar -9.724237e-01 0.000000e+00 0.000000e+00
1
Step 375000
Ar -9.772298e-01 0.000000e+00 0.000000e+00
1
Step 376000
Ar -8.141565e-01 0.000000e+00 0.000000e+00
1
Step 377000
Ar -7.780866e-01 0.000000e+00 0.000000e+00
1
Step 378000
Ar -8.858438e-01 0.000000e+00 0.000000e+00
1
Step 379000
Ar -8.737546e-01 0.000000e+00 0.000000e+00
1
Step 380000
Ar -8.352217e-01 0.000000e+00 0.000000e+00
1
Step 381000
Ar -8.118288e-01 0.000000e+00 0.000000e+00
1
Step 382000
Ar -6.953222e-01 0.000000e+00 0.000000e+00
1
Step 383000
Ar -8.127907e-01 0.000000e+00 0.000000e+00
1
Step 384000
Ar -8.084759e-01 0.000000e+00 0.000000e+00
1
Step 385000
Ar -4.947482e-01 0.000000e+00 0.000000e+00
1
Step 386000
Ar -3.535513e-01 0.000000e+00 0.000000e+00
1
Step 387000
Ar -3.741942e-01 0.000000e+00 0.000000e+00
1
Step 388000
Ar -4.380091e-01 0.000000e+00 0.000000e+00
1
Step 389000
Ar -4.598667e-01 0.000000e+00 0.000000e+00
1
Step 390000
Ar -4.734918e-01 0.000000e+00 0.000000e+00
1
Step 391000
Ar 5.647559e-01 0.000000e+00 0.000000e+00
1
Step 392000
Ar 4.762615e-01 0.000000e+00 0.000000e+00
1
Step 393000
Ar 5.252166e-01 0.000000e+00 0.000000e+00
1
Step 394000
Ar 4.673620e-01 0.000000e+00 0.000000e+00
1
Step 395000
Ar 5.514696e-01 0.000000e+00 0.000000e+00
1
Step 396000
Ar 5.387453e-01 0.000000e+00 0.000000e+00
1
Step 397000
Ar 4.161595e-01 0.000000e+00 0.000000e+00
1
Step 398000
Ar 5.119091e-01 0.000000e+00 0.000000e+00
1
Step 399000
Ar 4.292441e-01 0.000000e+00 0.000000e+00
1
Step 400000
Ar 5.241145e-01 0.000000e+00 0.000000e+00
1
Step 401000
Ar 1.760874e-01 0.000000e+00 0.000000e+00
1
Step 402000
Ar 4.804790e-01 0.000000e+00 0.000000e+00
1
Step 403000
Ar 4.236075e-01 0.000000e+00 0.000000e+00
1
Step 404000
Ar 4.597486e-01 0.000000e+00 0.000000e+00
1
Step 405000
Ar 3.693371e-01 0.000000e+00 0.000000e+00
1
Step 406000
Ar 5.041667e-01 0.000000e+00 0.000000e+00
1
Step 407000
Ar 4.978887e-01 0.000000e+00 0.000000e+00
1
Step 408000
Ar 4.822450e-01 0.000000e+00 0.000000e+00
1
Step 409000
Ar 5.055261e-01 0.000000e+00 0.000000e+00
1
Step 410000
Ar 4.208418e-01 0.000000e+00 0.000000e+00
1
Step 411000
Ar 4.967822e-01 0.000000e+00 0.000000e+00
1
Step 412000
Ar 4.332603e-01 0.000000e+00 0.000000e+00
1
Step 413000
Ar 5.009227e-01 0.000000e+00 0.000000e+00
1
Step 414000
Ar 4.883279e-01 0.000000e+00 0.000000e+00
1
Step 415000
Ar 4.742078e-01 0.000000e+00 0.000000e+00
1
Step 416000
Ar 4.950354e-01 0.000000e+00 0.000000e+00
1
Step 417000
Ar 4.965235e-01 0.000000e+00 0.000000e+00
1
Step 418000
Ar 5.058614e-01 0.000000e+00 0.000000e+00
1
Step 419000
Ar 4.917855e-01 0.000000e+00 0.000000e+00
1
Step 420000
Ar 5.019552e-01 0.000000e+00 0.000000e+00
1
Step 421000
Ar 4.847778e-01 0.000000e+00 0.000000e+00
1
Step 422000
Ar 4.910931e-01 0.000000e+00 0.000000e+00
1
Step 423000
Ar 4.922278e-01 0.000000e+00 0.000000e+00
1
Step 424000
Ar 4.875755e-01 0.000000e+00 0.000000e+00
1
Step 425000
Ar 4.862679e-01 0.000000e+00 0.000000e+00
1
Step 426000
Ar 5.967531e-01 0.000000e+00 0.000000e+00
1
Step 427000
Ar 5.991829e-01 0.000000e+00 0.000000e+00
1
Step 428000
Ar 5.865074e-01 0.000000e+00 0.000000e+00
1
Step 429000
Ar 6.119969e-01 0.000000e+00 0.000000e+00
1
Step 430000
Ar 5.728872e-01 0.000000e+00 0.000000e+00
1
Step 431000
Ar 5.633803e-01 0.000000e+00 0.000000e+00
1
Step 432000
Ar 5.641008e-01 0.000000e+00 0.000000e+00
1
Step 433000
Ar 5.654749e-01 0.000000e+00 0.000000e+00
1
Step 434000
Ar 6.634514e-01 0.000000e+00 0.000000e+00
1
Step 435000
Ar 6.778059e-01 0.000000e+00 0.000000e+00
1
Step 436000
Ar -4.130815e-01 0.000000e+00 0.000000e+00
1
Step 437000
Ar -4.494331e-01 0.000000e+00 0.000000e+00
1
Step 438000
Ar -3.267715e-01 0.000000e+00 0.000000e+00
1
Step 439000
Ar -8.696084e-02 0.000000e+00 0.000000e+00
1
Step 440000
Ar 2.495080e-01 0.000000e+00 0.000000e+00
1
Step 441000
Ar 2.947902e-01 0.000000e+00 0.000000e+00
1
Step 442000
Ar 3.528189e-01 0.000000e+00 0.000000e+00
1
Step 443000
Ar 3.320119e-01 0.000000e+00 0.000000e+00
1
Step 444000
Ar 2.853450e-01 0.000000e+00 0.000000e+00
1
Step 445000
Ar 2.932677e-01 0.000000e+00 0.000000e+00
1
Step 446000
Ar -4.091623e-01 0.000000e+00 0.000000e+00
1
Step 447000
Ar -3.802552e-01 0.000000e+00 0.000000e+00
1
Step 448000
Ar -4.532072e-01 0.000000e+00 0.000000e+00
1
Step 449000
Ar -4.614509e-01 0.000000e+00 0.000000e+00
1
Step 450000
Ar -3.876183e-01 0.000000e+00 0.000000e+00
1
Step 451000
Ar -3.125882e-01 0.000000e+00 0.000000e+00
1
Step 452000
Ar -3.582369e-01 0.000000e+00 0.000000e+00
1
Step 453000
Ar 2.123025e-01 0.000000e+00 0.000000e+00
1
Step 454000
Ar -3.629759e-01 0.000000e+00 0.000000e+00
1
Step 455000
Ar -3.684346e-01 0.000000e+00 0.000000e+00
1
Step 456000
Ar -4.584239e-01 0.000000e+00 0.000000e+00
1
Step 457000
Ar -4.270292e-01 0.000000e+00 0.000000e+00
1
Step 458000
Ar -4.571566e-01 0.000000e+00 0.000000e+00
1
Step 459000
Ar -4.075774e-01 0.000000e+00 0.000000e+00
1
Step 460000
Ar -4.445712e-01 0.000000e+00 0.000000e+00
1
Step 461000
Ar -4.836412e-01 0.000000e+00 0.000000e+00
1
Step 462000
Ar -4.824337e-01 0.000000e+00 0.000000e+00
1
Step 463000
Ar -4.832625e-01 0.000000e+00 0.000000e+00
1
Step 464000
Ar -4.827054e-01 0.000000e+00 0.000000e+00
1
Step 465000
Ar -4.839732e-01 0.000000e+00 0.000000e+00
1
Step 466000
Ar 2.266915e-01 0.000000e+00 0.000000e+00
1
Step 467000
Ar 3.462916e-02 0.000000e+00 0.000000e+00
1
Step 468000
Ar -5.602021e-02 0.000000e+00 0.000000e+00
1
Step 469000
Ar 2.300264e-01 0.000000e+00 0.000000e+00
1
Step 470000
Ar -2.843290e-01 0.000000e+00 0.000000e+00
1
Step 471000
Ar -3.098942e-01 0.000000e+00 0.000000e+00
1
Step 472000
Ar -3.554604e-01 0.000000e+00 0.000000e+00
1
Step 473000
Ar -3.410093e-01 0.000000e+00 0.000000e+00
1
Step 474000
Ar -3.153802e-01 0.000000e+00 0.000000e+00
1
Step 475000
Ar -3.074699e-01 0.000000e+00 0.000000e+00
1
Step 476000
Ar -3.363048e-01 0.000000e+00 0.000000e+00
1
Step 477000
Ar -3.242832e-01 0.000000e+00 0.000000e+00
1
Step 478000
Ar -3.321102e-01 0.000000e+00 0.000000e+00
1
Step 479000
Ar -3.342346e-01 0.000000e+00 0.000000e+00
1
Step 480000
Ar -3.407003e-01 0.000000e+00 0.000000e+00
1
Step 481000
Ar -4.604950e-01 0.000000e+00 0.000000e+00
1
Step 482000
Ar -4.556231e-01 0.000000e+00 0.000000e+00
1
Step 483000
Ar -4.628992e-01 0.000000e+00 0.000000e+00
1
Step 484000
Ar -4.600968e-01 0.000000e+00 0.000000e+00
1
Step 485000
Ar -4.630981e-01 0.000000e+00 0.000000e+00
1
Step 486000
Ar -1.968324e-01 0.000000e+00 0.000000e+00
1
Step 487000
Ar -2.576750e-02 0.000000e+00 0.000000e+00
1
Step 488000
Ar 1.436397e-01 0.000000e+00 0.000000e+00
1
Step 489000
Ar -1.971200e-01 0.000000e+00 0.000000e+00
1
Step 490000
Ar -2.560252e-01 0.000000e+00 0.000000e+00
1
Step 491000
Ar -1.503322e-01 0.000000e+00 0.000000e+00
1
Step 492000
Ar 1.163014e-01 0.000000e+00 0.000000e+00
1
Step 493000
Ar -1.097954e-01 0.000000e+00 0.000000e+00
1
Step 494000
Ar -1.720025e-01 0.000000e+00 0.000000e+00
1
Step 495000
Ar 9.854159e-02 0.000000e+00 0.000000e+00
1
Step 496000
Ar -2.148214e-01 0.000000e+00 0.000000e+00
1
Step 497000
Ar -1.845159e-01 0.000000e+00 0.000000e+00
1
Step 498000
Ar -8.032958e-02 0.000000e+00 0.000000e+00
1
Step 499000
Ar -2.399103e-01 0.000000e+00 0.000000e+00
1
Step 500000
Ar -9.350299e-02 0.000000e+00 0.000000e+00
1
Step 501000
Ar -3.504813e-01 0.000000e+00 0.000000e+00
1
Step 502000
Ar -3.516159e-01 0.000000e+00 0.000000e+00
1
Step 503000
Ar -3.527341e-01 0.000000e+00 0.000000e+00
1
Step 504000
Ar -3.513516e-01 0.000000e+00 0.000000e+00
1
Step 505000
Ar -3.538027e-01 0.000000e+00 0.000000e+00
1
Step 506000
Ar -3.216643e-01 0.000000e+00 0.000000e+00
1
Step 507000
Ar -3.232471e-01 0.000000e+00 0.000000e+00
1
Step 508000
Ar -3.286552e-01 0.000000e+00 0.000000e+00
1
Step 509000
Ar -3.213062e-01 0.000000e+00 0.000000e+00
1
Step 510000
Ar -3.290002e-01 0.000000e+00 0.000000e+00
1
Step 511000
Ar -3.158868e-01 0.000000e+00 0.000000e+00
1
Step 512000
Ar -3.170969e-01 0.000000e+00 0.000000e+00
1
Step 513000
Ar -3.182652e-01 0.000000e+00 0.000000e+00
1
Step 514000
Ar -3.233326e-01 0.000000e+00 0.000000e+00
1
Step 515000
Ar -3.213440e-01 0.000000e+00 0.000000e+00
1
Step 516000
Ar -2.068236e-01 0.000000e+00 0.000000e+00
1
Step 517000
Ar -1.388355e-01 0.000000e+00 0.000000e+00
1
Step 518000
Ar -1.568840e-01 0.000000e+00 0.000000e+00
1
Step 519000
Ar -2.109386e-01 0.000000e+00 0.000000e+00
1
Step 520000
Ar -1.938942e-01 0.000000e+00 0.000000e+00
1
Step 521000
Ar -2.430118e-01 0.000000e+00 0.000000e+00
1
Step 522000
Ar -2.310139e-01 0.000000e+00 0.000000e+00
1
Step 523000
Ar -2.405353e-01 0.000000e+00 0.000000e+00
1
Step 524000
Ar -2.332248e-01 0.000000e+00 0.000000e+00
1
Step 525000
Ar -2.112031e-01 0.000000e+00 0.000000e+00
1
Step 526000
Ar -2.246438e-01 0.000000e+00 0.000000e+00
1
Step 527000
Ar -2.362512e-01 0.000000e+00 0.000000e+00
1
Step 528000
Ar -2.336905e-01 0.000000e+00 0.000000e+00
1
Step 529000
Ar -2.378545e-01 0.000000e+00 0.000000e+00
1
Step 530000
Ar -2.261830e-01 0.000000e+00 0.000000e+00
1
Step 531000
Ar -2.707447e-01 0.000000e+00 0.000000e+00
1
Step 532000
Ar -2.763141e-01 0.000000e+00 0.000000e+00
1
Step 533000
Ar -2.706790e-01 0.000000e+00 0.000000e+00
1
Step 534000
Ar -2.655158e-01 0.000000e+00 0.000000e+00
1
Step 535000
Ar -2.733838e-01 0.000000e+00 0.000000e+00
1
Step 536000
Ar -4.626999e-02 0.000000e+00 0.000000e+00
1
Step 537000
Ar -3.072175e-02 0.000000e+00 0.000000e+00
1
Step 538000
Ar -2.365452e-02 0.000000e+00 0.000000e+00
1
Step 539000
Ar -4.015357e-02 0.000000e+00 0.000000e+00
1
Step 540000
Ar 4.325763e-02 0.000000e+00 0.000000e+00
1
Step 541000
Ar -6.081284e-03 0.000000e+00 0.000000e+00
1
Step 542000
Ar -6.452004e-02 0.000000e+00 0.000000e+00
1
Step 543000
Ar -5.752182e-02 0.000000e+00 0.000000e+00
1
Step 544000
Ar 1.090995e-02 0.000000e+00 0.000000e+00
1
Step 545000
Ar -1.445097e-02 0.000000e+00 0.000000e+00
1
Step 546000
Ar -1.664335e-01 0.000000e+00 0.000000e+00
1
Step 547000
Ar -1.800261e-01 0.000000e+00 0.000000e+00
1
Step 548000
Ar -1.287376e-01 0.000000e+00 0.000000e+00
1
Step 549000
Ar -1.164707e-01 0.000000e+00 0.000000e+00
1
Step 550000
Ar -1.189315e-01 0.000000e+00 0.000000e+00
1
Step 551000
Ar -1.676682e-01 0.000000e+00 0.000000e+00
1
Step 552000
Ar -1.317156e-01 0.000000e+00 0.000000e+00
1
Step 553000
Ar -1.547915e-01 0.000000e+00 0.000000e+00
1
Step 554000
Ar -1.368495e-01 0.000000e+00 0.000000e+00
1
Step 555000
Ar -1.309283e-01 0.000000e+00 0.000000e+00
1
Step 556000
Ar 4.835844e-03 0.000000e+00 0.000000e+00
1
Step 557000
Ar 4.292334e-03 0.000000e+00 0.000000e+00
1
Step 558000
Ar 5.473939e-03 0.000000e+00 0.000000e+00
1
Step 559000
Ar 1.699881e-02 0.000000e+00 0.000000e+00
1
Step 560000
Ar 1.450901e-02 0.000000e+00 0.000000e+00
1
Step 561000
Ar -4.023279e-02 0.000000e+00 0.000000e+00
1
Step 562000
Ar -3.798187e-02 0.000000e+00 0.000000e+00
1
Step 563000
Ar -3.774387e-02 0.000000e+00 0.000000e+00
1
Step 564000
Ar -4.504939e-02 0.000000e+00 0.000000e+00
1
Step 565000
Ar -4.093908e-02 0.000000e+00 0.000000e+00
1
Step 566000
Ar 2.115835e-03 0.000000e+00 0.000000e+00
1
Step 567000
Ar 2.330394e-03 0.000000e+00 0.000000e+00
1
Step 568000
Ar 4.897862e-04 0.000000e+00 0.000000e+00
1
Step 569000
Ar 8.300736e-04 0.000000e+00 0.000000e+00
1
Step 570000
Ar -1.159435e-03 0.000000e+00 0.000000e+00
1
Step 571000
Ar -6.318506e-02 0.000000e+00 0.000000e+00
1
Step 572000
Ar -6.359204e-02 0.000000e+00 0.000000e+00
1
Step 573000
Ar -5.834611e-02 0.000000e+00 0.000000e+00
1
Step 574000
Ar -6.134698e-02 0.000000e+00 0.000000e+00
1
Step 575000
Ar -7.381693e-02 0.000000e+00 0.000000e+00
1
Step 576000
Ar -5.673507e-01 0.000000e+00 0.000000e+00
1
Step 577000
Ar -7.004500e-01 0.000000e+00 0.000000e+00
1
Step 578000
Ar -8.085254e-01 0.000000e+00 0.000000e+00
1
Step 579000
Ar -8.234739e-01 0.000000e+00 0.000000e+00
1
Step 580000
Ar -8.086409e-01 0.000000e+00 0.000000e+00
1
Step 581000
Ar -7.945460e-01 0.000000e+00 0.000000e+00
1
Step 582000
Ar -7.442102e-01 0.000000e+00 0.000000e+00
1
Step 583000
Ar -7.906852e-01 0.000000e+00 0.000000e+00
1
Step 584000
Ar -7.639613e-01 0.000000e+00 0.000000e+00
1
Step 585000
Ar -7.334943e-01 0.000000e+00 0.000000e+00
1
Step 586000
Ar -6.869023e-01 0.000000e+00 0.000000e+00
1
Step 587000
Ar -5.508185e-01 0.000000e+00 0.000000e+00
1
Step 588000
Ar -6.856144e-01 0.000000e+00 0.000000e+00
1
Step 589000
Ar -6.558696e-01 0.000000e+00 0.000000e+00
1
Step 590000
Ar -6.316442e-01 0.000000e+00 0.000000e+00
1
Step 591000
Ar -7.029304e-01 0.000000e+00 0.000000e+00
1
Step 592000
Ar -7.065320e-01 0.000000e+00 0.000000e+00
1
Step 593000
Ar -6.804725e-01 0.000000e+00 0.000000e+00
1
Step 594000
Ar -6.681002e-01 0.000000e+00 0.000000e+00
1
Step 595000
Ar -7.078776e-01 0.000000e+00 0.000000e+00
1
Step 596000
Ar -6.604448e-01 0.000000e+00 0.000000e+00
1
Step 597000
Ar -6.929407e-01 0.000000e+00 0.000000e+00
1
Step 598000
Ar -6.665922e-01 0.000000e+00 0.000000e+00
1
Step 599000
Ar -6.735101e-01 0.000000e+00 0.000000e+00
1
Step 600000
Ar -6.555050e-01 0.000000e+00 0.000000e+00
1
Step 601000
Ar -7.723437e-01 0.000000e+00 0.000000e+00
1
Step 602000
Ar -7.547417e-01 0.000000e+00 0.000000e+00
1
Step 603000
Ar -7.521174e-01 0.000000e+00 0.000000e+00
1
Step 604000
Ar -7.488566e-01 0.000000e+00 0.000000e+00
1
Step 605000
Ar -7.670559e-01 0.000000e+00 0.000000e+00
1
Step 606000
Ar -8.961861e-01 0.000000e+00 0.000000e+00
1
Step 607000
Ar -8.801242e-01 0.000000e+00 0.000000e+00
1
Step 608000
Ar -8.490111e-01 0.000000e+00 0.000000e+00
1
Step 609000
Ar -8.590200e-01 0.000000e+00 0.000000e+00
1
Step 610000
Ar -8.763750e-01 0.000000e+00 0.000000e+00
1
Step 611000
Ar -9.645887e-01 0.000000e+00 0.000000e+00
1
Step 612000
Ar -9.588716e-01 0.000000e+00 0.000000e+00
1
Step 613000
Ar -9.640845e-01 0.000000e+00 0.000000e+00
1
Step 614000
Ar -9.676171e-01 0.000000e+00 0.000000e+00
1
Step 615000
Ar -9.625427e-01 0.000000e+00 0.000000e+00
1
Step 616000
Ar -9.316210e-01 0.000000e+00 0.000000e+00
1
Step 617000
Ar -9.361980e-01 0.000000e+00 0.000000e+00
1
Step 618000
Ar -9.280148e-01 0.000000e+00 0.000000e+00
1
Step 619000
Ar -9.291701e-01 0.000000e+00 0.000000e+00
1
Step 620000
Ar -9.437137e-01 0.000000e+00 0.000000e+00
1
Step 621000
Ar -8.932826e-01 0.000000e+00 0.000000e+00
1
Step 622000
Ar -9.055652e-01 0.000000e+00 0.000000e+00
1
Step 623000
Ar -8.984544e-01 0.000000e+00 0.000000e+00
1
Step 624000
Ar -8.983851e-01 0.000000e+00 0.000000e+00
1
Step 625000
Ar -8.942951e-01 0.000000e+00 0.000000e+00
1
Step 626000
Ar -9.317693e-01 0.000000e+00 0.000000e+00
1
Step 627000
Ar -9.299871e-01 0.000000e+00 0.000000e+00
1
Step 628000
Ar -9.282311e-01 0.000000e+00 0.000000e+00
1
Step 629000
Ar -9.321536e-01 0.000000e+00 0.000000e+00
1
Step 630000
Ar -9.263171e-01 0.000000e+00 0.000000e+00
1
Step 631000
Ar -7.869886e-01 0.000000e+00 0.000000e+00
1
Step 632000
Ar -7.969532e-01 0.000000e+00 0.000000e+00
1
Step 633000
Ar -7.880007e-01 0.000000e+00 0.000000e+00
1
Step 634000
Ar -7.899883e-01 0.000000e+00 0.000000e+00
1
Step 635000
Ar -7.894301e-01 0.000000e+00 0.000000e+00
1
Step 636000
Ar -7.803630e-01 0.000000e+00 0.000000e+00
1
Step 637000
Ar -7.779149e-01 0.000000e+00 0.000000e+00
1
Step 638000
Ar -7.790822e-01 0.000000e+00 0.000000e+00
1
Step 639000
Ar -7.778484e-01 0.000000e+00 0.000000e+00
1
Step 640000
Ar -8.615257e-01 0.000000e+00 0.000000e+00
1
Step 641000
Ar -6.809662e-01 0.000000e+00 0.000000e+00
1
Step 642000
Ar -6.696188e-01 0.000000e+00 0.000000e+00
1
Step 643000
Ar -6.887753e-01 0.000000e+00 0.000000e+00
1
Step 644000
Ar -6.948833e-01 0.000000e+00 0.000000e+00
1
Step 645000
Ar -6.777581e-01 0.000000e+00 0.000000e+00
1
Step 646000
Ar -6.924253e-01 0.000000e+00 0.000000e+00
1
Step 647000
Ar -6.913910e-01 0.000000e+00 0.000000e+00
1
Step 648000
Ar -6.882019e-01 0.000000e+00 0.000000e+00
1
Step 649000
Ar -6.934804e-01 0.000000e+00 0.000000e+00
1
Step 650000
Ar -6.825502e-01 0.000000e+00 0.000000e+00
1
Step 651000