1
Step 120000
Ar 6.450666e-01 0.000000e+00 0.000000e+00
1
Step 121000
Ar 1.158164e+00 0.000000e+00 0.000000e+00
1
Step 122000
Ar 1.042809e+00 0.000000e+00 0.000000e+00
1
Step 123000
Ar 9.271863e-01 0.000000e+00 0.000000e+00
1
Step 124000
Ar 1.217669e+00 0.000000e+00 0.000000e+00
1
Step 125000
Ar 9.578056e-01 0.000000e+00 0.000000e+00
1
Step 126000
Ar 1.155549e+00 0.000000e+00 0.000000e+00
1
Step 127000
Ar 1.144982e+00 0.000000e+00 0.000000e+00
1
Step 128000
Ar 1.240798e+00 0.000000e+00 0.000000e+00
1
Step 129000
Ar 1.033075e+00 0.000000e+00 0.000000e+00
1
Step 130000
Ar 9.914282e-01 0.000000e+00 0.000000e+00
1
Step 131000
Ar 1.133493e+00 0.000000e+00 0.000000e+00
1
Step 132000
Ar 1.032844e+00 0.000000e+00 0.000000e+00
1
Step 133000
Ar 1.007894e+00 0.000000e+00 0.000000e+00
1
Step 134000
Ar 1.141813e+00 0.000000e+00 0.000000e+00
1
Step 135000
Ar 1.057568e+00 0.000000e+00 0.000000e+00
1
Step 136000
Ar 1.087170e+00 0.000000e+00 0.000000e+00
1
Step 137000
Ar 1.134851e+00 0.000000e+00 0.000000e+00
1
Step 138000
Ar 1.179810e+00 0.000000e+00 0.000000e+00
1
Step 139000
Ar 1.086337e+00 0.000000e+00 0.000000e+00
1
Step 140000
Ar 1.182727e+00 0.000000e+00 0.000000e+00
1
Step 141000
Ar 1.066246e+00 0.000000e+00 0.000000e+00
1
Step 142000
Ar 1.090278e+00 0.000000e+00 0.000000e+00
1
Step 143000
Ar 1.087346e+00 0.000000e+00 0.000000e+00
1
Step 144000
Ar 1.079447e+00 0.000000e+00 0.000000e+00
1
Step 145000
Ar 1.079584e+00 0.000000e+00 0.000000e+00
1
Step 146000
Ar 1.096518e+00 0.000000e+00 0.000000e+00
1
Step 147000
Ar 1.139026e+00 0.000000e+00 0.000000e+00
1
Step 148000
Ar 1.163467e+00 0.000000e+00 0.000000e+00
1
Step 149000
Ar 1.115824e+00 0.000000e+00 0.000000e+00
1
Step 150000
Ar 1.133951e+00 0.000000e+00 0.000000e+00
1
Step 151000
Ar 1.144869e+00 0.000000e+00 0.000000e+00
1
Step 152000
Ar 1.164941e+00 0.000000e+00 0.000000e+00
1
Step 153000
Ar 1.168197e+00 0.000000e+00 0.000000e+00
1
Step 154000
Ar 1.152140e+00 0.000000e+00 0.000000e+00
1
Step 155000
Ar 1.162360e+00 0.000000e+00 0.000000e+00
1
Step 156000
Ar 1.151850e+00 0.000000e+00 0.000000e+00
1
Step 157000
Ar 1.145110e+00 0.000000e+00 0.000000e+00
1
Step 158000
Ar 1.151344e+00 0.000000e+00 0.000000e+00
1
Step 159000
Ar 1.147955e+00 0.000000e+00 0.000000e+00
1
Step 160000
Ar 1.152710e+00 0.000000e+00 0.000000e+00
1
Step 161000
Ar 9.811297e-01 0.000000e+00 0.000000e+00
1
Step 162000
Ar 9.730900e-01 0.000000e+00 0.000000e+00
1
Step 163000
Ar 9.745076e-01 0.000000e+00 0.000000e+00
1
Step 164000
Ar 9.744528e-01 0.000000e+00 0.000000e+00
1
Step 165000
Ar 9.672127e-01 0.000000e+00 0.000000e+00
1
Step 166000
Ar 1.143599e+00 0.000000e+00 0.000000e+00
1
Step 167000
Ar 1.112276e+00 0.000000e+00 0.000000e+00
1
Step 168000
Ar 1.125415e+00 0.000000e+00 0.000000e+00
1
Step 169000
Ar 1.112933e+00 0.000000e+00 0.000000e+00
1
Step 170000
Ar 1.099029e+00 0.000000e+00 0.000000e+00
1
Step 171000
Ar 1.123223e+00 0.000000e+00 0.000000e+00
1
Step 172000
Ar 1.120590e+00 0.000000e+00 0.000000e+00
1
Step 173000
Ar 1.114302e+00 0.000000e+00 0.000000e+00
1
Step 174000
Ar 1.117265e+00 0.000000e+00 0.000000e+00
1
Step 175000
Ar 1.119258e+00 0.000000e+00 0.000000e+00
1
Step 176000
Ar 1.070785e+00 0.000000e+00 0.000000e+00
1
Step 177000
Ar 1.072577e+00 0.000000e+00 0.000000e+00
1
Step 178000
Ar 1.066699e+00 0.000000e+00 0.000000e+00
1
Step 179000
Ar 1.068191e+00 0.000000e+00 0.000000e+00
1
Step 180000
Ar 1.067439e+00 0.000000e+00 0.000000e+00
1
Step 181000
Ar 9.140499e-01 0.000000e+00 0.000000e+00
1
Step 182000
Ar 8.212327e-01 0.000000e+00 0.000000e+00
1
Step 183000
Ar 8.694660e-01 0.000000e+00 0.000000e+00
1
Step 184000
Ar 8.041951e-01 0.000000e+00 0.000000e+00
1
Step 185000
Ar 9.190938e-01 0.000000e+00 0.000000e+00
1
Step 186000
Ar 5.310314e-01 0.000000e+00 0.000000e+00
1
Step 187000
Ar 7.866949e-01 0.000000e+00 0.000000e+00
1
Step 188000
Ar 8.921495e-01 0.000000e+00 0.000000e+00
1
Step 189000
Ar 7.814330e-01 0.000000e+00 0.000000e+00
1
Step 190000
Ar 8.663919e-01 0.000000e+00 0.000000e+00
1
Step 191000
Ar 8.400326e-01 0.000000e+00 0.000000e+00
1
Step 192000
Ar 8.058081e-01 0.000000e+00 0.000000e+00
1
Step 193000
Ar 7.690646e-01 0.000000e+00 0.000000e+00
1
Step 194000
Ar 7.522373e-01 0.000000e+00 0.000000e+00
1
Step 195000
Ar 8.200666e-01 0.000000e+00 0.000000e+00
1
Step 196000
Ar 7.909779e-01 0.000000e+00 0.000000e+00
1
Step 197000
Ar 6.360913e-01 0.000000e+00 0.000000e+00
1
Step 198000
Ar 7.990661e-01 0.000000e+00 0.000000e+00
1
Step 199000
Ar 7.255149e-01 0.000000e+00 0.000000e+00
1
Step 200000
Ar 7.773394e-01 0.000000e+00 0.000000e+00
1
Step 201000
Ar 8.925013e-01 0.000000e+00 0.000000e+00
1
Step 202000
Ar 9.003507e-01 0.000000e+00 0.000000e+00
1
Step 203000
Ar 8.876916e-01 0.000000e+00 0.000000e+00
1
Step 204000
Ar 8.909663e-01 0.000000e+00 0.000000e+00
1
Step 205000
Ar 8.888551e-01 0.000000e+00 0.000000e+00
1
Step 206000
Ar 8.994871e-01 0.000000e+00 0.000000e+00
1
Step 207000
Ar 8.983416e-01 0.000000e+00 0.000000e+00
1
Step 208000
Ar 9.005169e-01 0.000000e+00 0.000000e+00
1
Step 209000
Ar 9.069435e-01 0.000000e+00 0.000000e+00
1
Step 210000
Ar 9.092746e-01 0.000000e+00 0.000000e+00
1
Step 211000
Ar 8.799737e-01 0.000000e+00 0.000000e+00
1
Step 212000
Ar 8.801441e-01 0.000000e+00 0.000000e+00
1
Step 213000
Ar 8.755547e-01 0.000000e+00 0.000000e+00
1
Step 214000
Ar 8.828274e-01 0.000000e+00 0.000000e+00
1
Step 215000
Ar 8.988363e-01 0.000000e+00 0.000000e+00
1
Step 216000
Ar 7.133248e-01 0.000000e+00 0.000000e+00
1
Step 217000
Ar 7.312092e-01 0.000000e+00 0.000000e+00
1
Step 218000
Ar 7.456733e-01 0.000000e+00 0.000000e+00
1
Step 219000
Ar 7.659354e-01 0.000000e+00 0.000000e+00
1
Step 220000
Ar 6.689254e-01 0.000000e+00 0.000000e+00
1
Step 221000
Ar 6.082954e-01 0.000000e+00 0.000000e+00
1
Step 222000
Ar 6.094564e-01 0.000000e+00 0.000000e+00
1
Step 223000
Ar 6.400163e-01 0.000000e+00 0.000000e+00
1
Step 224000
Ar 5.466654e-01 0.000000e+00 0.000000e+00
1
Step 225000
Ar 6.171927e-01 0.000000e+00 0.000000e+00
1
Step 226000
Ar 3.354846e-01 0.000000e+00 0.000000e+00
1
Step 227000
Ar 4.990204e-01 0.000000e+00 0.000000e+00
1
Step 228000
Ar 5.354686e-01 0.000000e+00 0.000000e+00
1
Step 229000
Ar 4.797929e-01 0.000000e+00 0.000000e+00
1
Step 230000
Ar 1.775223e-01 0.000000e+00 0.000000e+00
1
Step 231000
Ar 7.428541e-01 0.000000e+00 0.000000e+00
1
Step 232000
Ar 7.494641e-01 0.000000e+00 0.000000e+00
1
Step 233000
Ar 7.411585e-01 0.000000e+00 0.000000e+00
1
Step 234000
Ar 7.052359e-01 0.000000e+00 0.000000e+00
1
Step 235000
Ar 7.290423e-01 0.000000e+00 0.000000e+00
1
Step 236000
Ar 5.407299e-01 0.000000e+00 0.000000e+00
1
Step 237000
Ar 5.956384e-01 0.000000e+00 0.000000e+00
1
Step 238000
Ar 5.243714e-01 0.000000e+00 0.000000e+00
1
Step 239000
Ar 5.332280e-01 0.000000e+00 0.000000e+00
1
Step 240000
Ar 5.709319e-01 0.000000e+00 0.000000e+00
1
Step 241000
Ar 5.501597e-01 0.000000e+00 0.000000e+00
1
Step 242000
Ar 5.485871e-01 0.000000e+00 0.000000e+00
1
Step 243000
Ar 5.163006e-01 0.000000e+00 0.000000e+00
1
Step 244000
Ar 5.349223e-01 0.000000e+00 0.000000e+00
1
Step 245000
Ar 5.533581e-01 0.000000e+00 0.000000e+00
1
Step 246000
Ar 5.994889e-01 0.000000e+00 0.000000e+00
1
Step 247000
Ar 6.025436e-01 0.000000e+00 0.000000e+00
1
Step 248000
Ar 5.832055e-01 0.000000e+00 0.000000e+00
1
Step 249000
Ar 5.856844e-01 0.000000e+00 0.000000e+00
1
Step 250000
Ar 5.978425e-01 0.000000e+00 0.000000e+00
1
Step 251000
Ar 8.724457e-01 0.000000e+00 0.000000e+00
1
Step 252000
Ar 8.800497e-01 0.000000e+00 0.000000e+00
1
Step 253000
Ar 8.518300e-01 0.000000e+00 0.000000e+00
1
Step 254000
Ar 8.340430e-01 0.000000e+00 0.000000e+00
1
Step 255000
Ar 8.388529e-01 0.000000e+00 0.000000e+00
1
Step 256000
Ar 8.538123e-01 0.000000e+00 0.000000e+00
1
Step 257000
Ar 8.528280e-01 0.000000e+00 0.000000e+00
1
Step 258000
Ar 8.514842e-01 0.000000e+00 0.000000e+00
1
Step 259000
Ar 8.478586e-01 0.000000e+00 0.000000e+00
1
Step 260000
Ar 8.521874e-01 0.000000e+00 0.000000e+00
1
Step 261000
Ar 8.790487e-01 0.000000e+00 0.000000e+00
1
Step 262000
Ar 8.773487e-01 0.000000e+00 0.000000e+00
1
Step 263000
Ar 8.741790e-01 0.000000e+00 0.000000e+00
1
Step 264000
Ar 8.806020e-01 0.000000e+00 0.000000e+00
1
Step 265000
Ar 8.766072e-01 0.000000e+00 0.000000e+00
1
Step 266000
Ar 7.999057e-01 0.000000e+00 0.000000e+00
1
Step 267000
Ar 8.027199e-01 0.000000e+00 0.000000e+00
1
Step 268000
Ar 7.905519e-01 0.000000e+00 0.000000e+00
1
Step 269000
Ar 7.934503e-01 0.000000e+00 0.000000e+00
1
Step 270000
Ar 7.992884e-01 0.000000e+00 0.000000e+00
1
Step 271000
Ar 7.878312e-01 0.000000e+00 0.000000e+00
1
Step 272000
Ar 7.904258e-01 0.000000e+00 0.000000e+00
1
Step 273000
Ar 7.880727e-01 0.000000e+00 0.000000e+00
1
Step 274000
Ar 7.868925e-01 0.000000e+00 0.000000e+00
1
Step 275000
Ar 7.869178e-01 0.000000e+00 0.000000e+00
1
Step 276000
Ar 6.324614e-01 0.000000e+00 0.000000e+00
1
Step 277000
Ar 6.390318e-01 0.000000e+00 0.000000e+00
1
Step 278000
Ar 6.418571e-01 0.000000e+00 0.000000e+00
1
Step 279000
Ar 6.282906e-01 0.000000e+00 0.000000e+00
1
Step 280000
Ar 6.481368e-01 0.000000e+00 0.000000e+00
1
Step 281000
Ar 7.508527e-01 0.000000e+00 0.000000e+00
1
Step 282000
Ar 7.592867e-01 0.000000e+00 0.000000e+00
1
Step 283000
Ar 7.574588e-01 0.000000e+00 0.000000e+00
1
Step 284000
Ar 7.566004e-01 0.000000e+00 0.000000e+00
1
Step 285000
Ar 7.685819e-01 0.000000e+00 0.000000e+00
1
Step 286000
Ar 7.114978e-01 0.000000e+00 0.000000e+00
1
Step 287000
Ar 7.086288e-01 0.000000e+00 0.000000e+00
1
Step 288000
Ar 7.056431e-01 0.000000e+00 0.000000e+00
1
Step 289000
Ar 7.088115e-01 0.000000e+00 0.000000e+00
1
Step 290000
Ar 6.874450e-01 0.000000e+00 0.000000e+00
1
Step 291000
Ar 7.105598e-01 0.000000e+00 0.000000e+00
1
Step 292000
Ar 7.102818e-01 0.000000e+00 0.000000e+00
1
Step 293000
Ar 7.100597e-01 0.000000e+00 0.000000e+00
1
Step 294000
Ar 7.035182e-01 0.000000e+00 0.000000e+00
1
Step 295000
Ar 7.108175e-01 0.000000e+00 0.000000e+00
1
Step 296000
Ar 6.349029e-01 0.000000e+00 0.000000e+00
1
Step 297000
Ar 6.329688e-01 0.000000e+00 0.000000e+00
1
Step 298000
Ar 6.326805e-01 0.000000e+00 0.000000e+00
1
Step 299000
Ar 6.308975e-01 0.000000e+00 0.000000e+00
1
Step 300000
Ar 6.280140e-01 0.000000e+00 0.000000e+00
1
Step 301000
Ar -1.010834e+00 0.000000e+00 0.000000e+00
1
Step 302000
Ar -1.044026e+00 0.000000e+00 0.000000e+00
1
Step 303000
Ar -6.827203e-01 0.000000e+00 0.000000e+00
1
Step 304000
Ar -9.406314e-01 0.000000e+00 0.000000e+00
1
Step 305000
Ar -8.116083e-01 0.000000e+00 0.000000e+00
1
Step 306000
Ar -1.095029e+00 0.000000e+00 0.000000e+00
1
Step 307000
Ar -1.096564e+00 0.000000e+00 0.000000e+00
1
Step 308000
Ar -9.463275e-01 0.000000e+00 0.000000e+00
1
Step 309000
Ar -1.215524e+00 0.000000e+00 0.000000e+00
1
Step 310000
Ar -1.100263e+00 0.000000e+00 0.000000e+00
1
Step 311000
Ar -9.495568e-01 0.000000e+00 0.000000e+00
1
Step 312000
Ar -1.024119e+00 0.000000e+00 0.000000e+00
1
Step 313000
Ar -9.999108e-01 0.000000e+00 0.000000e+00
1
Step 314000
Ar -9.621585e-01 0.000000e+00 0.000000e+00
1
Step 315000
Ar -9.772574e-01 0.000000e+00 0.000000e+00
1
Step 316000
Ar -9.024899e-01 0.000000e+00 0.000000e+00
1
Step 317000
Ar -9.191953e-01 0.000000e+00 0.000000e+00
1
Step 318000
Ar -9.663220e-01 0.000000e+00 0.000000e+00
1
Step 319000
Ar -8.857092e-01 0.000000e+00 0.000000e+00
1
Step 320000
Ar -9.025671e-01 0.000000e+00 0.000000e+00
1
Step 321000
Ar -8.614492e-01 0.000000e+00 0.000000e+00
1
Step 322000
Ar -8.393870e-01 0.000000e+00 0.000000e+00
1
Step 323000
Ar -8.437023e-01 0.000000e+00 0.000000e+00
1
Step 324000
Ar -8.404899e-01 0.000000e+00 0.000000e+00
1
Step 325000
Ar -8.390046e-01 0.000000e+00 0.000000e+00
1
Step 326000
Ar -8.226143e-01 0.000000e+00 0.000000e+00
1
Step 327000
Ar -8.270469e-01 0.000000e+00 0.000000e+00
1
Step 328000
Ar -8.284805e-01 0.000000e+00 0.000000e+00
1
Step 329000
Ar -8.285079e-01 0.000000e+00 0.000000e+00
1
Step 330000
Ar -8.239969e-01 0.000000e+00 0.000000e+00
1
Step 331000
Ar -9.595426e-01 0.000000e+00 0.000000e+00
1
Step 332000
Ar -9.394218e-01 0.000000e+00 0.000000e+00
1
Step 333000
Ar -9.605101e-01 0.000000e+00 0.000000e+00
1
Step 334000
Ar -9.585991e-01 0.000000e+00 0.000000e+00
1
Step 335000
Ar -9.212048e-01 0.000000e+00 0.000000e+00
1
Step 336000
Ar -8.709005e-01 0.000000e+00 0.000000e+00
1
Step 337000
Ar -8.791387e-01 0.000000e+00 0.000000e+00
1
Step 338000
Ar -8.602118e-01 0.000000e+00 0.000000e+00
1
Step 339000
Ar -8.840603e-01 0.000000e+00 0.000000e+00
1
Step 340000
Ar -8.697480e-01 0.000000e+00 0.000000e+00
1
Step 341000
Ar -1.145789e+00 0.000000e+00 0.000000e+00
1
Step 342000
Ar -1.124233e+00 0.000000e+00 0.000000e+00
1
Step 343000
Ar -1.160854e+00 0.000000e+00 0.000000e+00
1
Step 344000
Ar -1.298466e+00 0.000000e+00 0.000000e+00
1
Step 345000
Ar -1.162332e+00 0.000000e+00 0.000000e+00
1
Step 346000
Ar -1.131638e+00 0.000000e+00 0.000000e+00
1
Step 347000
Ar -1.117290e+00 0.000000e+00 0.000000e+00
1
Step 348000
Ar -1.114677e+00 0.000000e+00 0.000000e+00
1
Step 349000
Ar -1.140289e+00 0.000000e+00 0.000000e+00
1
Step 350000
Ar -1.148600e+00 0.000000e+00 0.000000e+00
1
Step 351000
Ar -1.202824e+00 0.000000e+00 0.000000e+00
1
Step 352000
Ar -1.276973e+00 0.000000e+00 0.000000e+00
1
Step 353000
Ar -1.189655e+00 0.000000e+00 0.000000e+00
1
Step 354000
Ar -1.216639e+00 0.000000e+00 0.000000e+00
1
Step 355000
Ar -1.291119e+00 0.000000e+00 0.000000e+00
1
Step 356000
Ar -1.348041e+00 0.000000e+00 0.000000e+00
1
Step 357000
Ar -1.328429e+00 0.000000e+00 0.000000e+00
1
Step 358000
Ar -1.310199e+00 0.000000e+00 0.000000e+00
1
Step 359000
Ar -1.360252e+00 0.000000e+00 0.000000e+00
1
Step 360000
Ar -1.316452e+00 0.000000e+00 0.000000e+00
1
Step 361000
Ar -1.344402e+00 0.000000e+00 0.000000e+00
1
Step 362000
Ar -1.331821e+00 0.000000e+00 0.000000e+00
1
Step 363000
Ar -1.371744e+00 0.000000e+00 0.000000e+00
1
Step 364000
Ar -1.368763e+00 0.000000e+00 0.000000e+00
1
Step 365000
Ar -1.346164e+00 0.000000e+00 0.000000e+00
1
Step 366000
Ar -1.332346e+00 0.000000e+00 0.000000e+00
1
Step 367000
Ar -1.327181e+00 0.000000e+00 0.000000e+00
1
Step 368000
Ar -1.323478e+00 0.000000e+00 0.000000e+00
1
Step 369000
Ar -1.329219e+00 0.000000e+00 0.000000e+00
1
Step 370000
Ar -1.330666e+00 0.000000e+00 0.000000e+00
1
Step 371000
Ar -1.121823e+00 0.000000e+00 0.000000e+00
1
Step 372000
Ar -1.109695e+00 0.000000e+00 0.000000e+00
1
Step 373000
Ar -1.134368e+00 0.000000e+00 0.000000e+00
1
Step 374000
Ar -1.133953e+00 0.000000e+00 0.000000e+00
1
Step 375000
Ar -1.116647e+00 0.000000e+00 0.000000e+00
1
Step 376000
Ar -9.965303e-01 0.000000e+00 0.000000e+00
1
Step 377000
Ar -1.029259e+00 0.000000e+00 0.000000e+00
1
Step 378000
Ar -9.897087e-01 0.000000e+00 0.000000e+00
1
Step 379000
Ar -1.032113e+00 0.000000e+00 0.000000e+00
