1
Step 120000
Ar 9.806563e-01 0.000000e+00 0.000000e+00
1
Step 121000
Ar 9.957372e-01 0.000000e+00 0.000000e+00
1
Step 122000
Ar 9.955936e-01 0.000000e+00 0.000000e+00
1
Step 123000
Ar 9.820620e-01 0.000000e+00 0.000000e+00
1
Step 124000
Ar 1.002737e+00 0.000000e+00 0.000000e+00
1
Step 125000
Ar 1.000673e+00 0.000000e+00 0.000000e+00
1
Step 126000
Ar 1.019807e+00 0.000000e+00 0.000000e+00
1
Step 127000
Ar 1.014989e+00 0.000000e+00 0.000000e+00
1
Step 128000
Ar 1.011650e+00 0.000000e+00 0.000000e+00
1
Step 129000
Ar 1.012680e+00 0.000000e+00 0.000000e+00
1
Step 130000
Ar 1.032824e+00 0.000000e+00 0.000000e+00
1
Step 131000
Ar 1.031277e+00 0.000000e+00 0.000000e+00
1
Step 132000
Ar 1.025173e+00 0.000000e+00 0.000000e+00
1
Step 133000
Ar 1.035298e+00 0.000000e+00 0.000000e+00
1
Step 134000
Ar 1.030647e+00 0.000000e+00 0.000000e+00
1
Step 135000
Ar 1.048122e+00 0.000000e+00 0.000000e+00
1
Step 136000
Ar 1.045290e+00 0.000000e+00 0.000000e+00
1
Step 137000
Ar 1.046383e+00 0.000000e+00 0.000000e+00
1
Step 138000
Ar 1.050466e+00 0.000000e+00 0.000000e+00
1
Step 139000
Ar 1.041813e+00 0.000000e+00 0.000000e+00
1
Step 140000
Ar 9.651221e-01 0.000000e+00 0.000000e+00
1
Step 141000
Ar 9.657992e-01 0.000000e+00 0.000000e+00
1
Step 142000
Ar 9.575835e-01 0.000000e+00 0.000000e+00
1
Step 143000
Ar 9.660523e-01 0.000000e+00 0.000000e+00
1
Step 144000
Ar 9.545765e-01 0.000000e+00 0.000000e+00
1
Step 145000
Ar 9.339437e-01 0.000000e+00 0.000000e+00
1
Step 146000
Ar 9.390934e-01 0.000000e+00 0.000000e+00
1
Step 147000
Ar 9.411405e-01 0.000000e+00 0.000000e+00
1
Step 148000
Ar 9.284368e-01 0.000000e+00 0.000000e+00
1
Step 149000
Ar 1.059284e+00 0.000000e+00 0.000000e+00
1
Step 150000
Ar 1.058445e+00 0.000000e+00 0.000000e+00
1
Step 151000
Ar 1.058752e+00 0.000000e+00 0.000000e+00
1
Step 152000
Ar 1.055856e+00 0.000000e+00 0.000000e+00
1
Step 153000
Ar 1.061282e+00 0.000000e+00 0.000000e+00
1
Step 154000
Ar 1.058842e+00 0.000000e+00 0.000000e+00
1
Step 155000
Ar 1.059326e+00 0.000000e+00 0.000000e+00
1
Step 156000
Ar 1.055002e+00 0.000000e+00 0.000000e+00
1
Step 157000
Ar 1.058380e+00 0.000000e+00 0.000000e+00
1
Step 158000
Ar 8.724003e-01 0.000000e+00 0.000000e+00
1
Step 159000
Ar 9.892488e-01 0.000000e+00 0.000000e+00
1
Step 160000
Ar 1.062380e+00 0.000000e+00 0.000000e+00
1
Step 161000
Ar 9.683430e-01 0.000000e+00 0.000000e+00
1
Step 162000
Ar 1.005515e+00 0.000000e+00 0.000000e+00
1
Step 163000
Ar 9.824425e-01 0.000000e+00 0.000000e+00
1
Step 164000
Ar 1.010642e+00 0.000000e+00 0.000000e+00
1
Step 165000
Ar 9.142894e-01 0.000000e+00 0.000000e+00
1
Step 166000
Ar 9.209976e-01 0.000000e+00 0.000000e+00
1
Step 167000
Ar 9.168119e-01 0.000000e+00 0.000000e+00
1
Step 168000
Ar 9.197245e-01 0.000000e+00 0.000000e+00
1
Step 169000
Ar 9.166113e-01 0.000000e+00 0.000000e+00
1
Step 170000
Ar 9.186120e-01 0.000000e+00 0.000000e+00
1
Step 171000
Ar 9.144109e-01 0.000000e+00 0.000000e+00
1
Step 172000
Ar 9.156748e-01 0.000000e+00 0.000000e+00
1
Step 173000
Ar 1.035181e+00 0.000000e+00 0.000000e+00
1
Step 174000
Ar 9.890641e-01 0.000000e+00 0.000000e+00
1
Step 175000
Ar 1.009459e+00 0.000000e+00 0.000000e+00
1
Step 176000
Ar 9.074387e-01 0.000000e+00 0.000000e+00
1
Step 177000
Ar 9.801084e-01 0.000000e+00 0.000000e+00
1
Step 178000
Ar 1.067567e+00 0.000000e+00 0.000000e+00
1
Step 179000
Ar 1.104320e+00 0.000000e+00 0.000000e+00
1
Step 180000
Ar 9.150596e-01 0.000000e+00 0.000000e+00
1
Step 181000
Ar 1.015194e+00 0.000000e+00 0.000000e+00
1
Step 182000
Ar 1.084434e+00 0.000000e+00 0.000000e+00
1
Step 183000
Ar 9.179113e-01 0.000000e+00 0.000000e+00
1
Step 184000
Ar 8.921897e-01 0.000000e+00 0.000000e+00
1
Step 185000
Ar 8.941873e-01 0.000000e+00 0.000000e+00
1
Step 186000
Ar 1.047280e+00 0.000000e+00 0.000000e+00
1
Step 187000
Ar 1.081056e+00 0.000000e+00 0.000000e+00
1
Step 188000
Ar 1.080405e+00 0.000000e+00 0.000000e+00
1
Step 189000
Ar 1.086988e+00 0.000000e+00 0.000000e+00
1
Step 190000
Ar 9.465706e-01 0.000000e+00 0.000000e+00
1
Step 191000
Ar 9.297035e-01 0.000000e+00 0.000000e+00
1
Step 192000
Ar 1.078763e+00 0.000000e+00 0.000000e+00
1
Step 193000
Ar 1.080670e+00 0.000000e+00 0.000000e+00
1
Step 194000
Ar 1.095884e+00 0.000000e+00 0.000000e+00
1
Step 195000
Ar 1.097147e+00 0.000000e+00 0.000000e+00
1
Step 196000
Ar 1.000498e+00 0.000000e+00 0.000000e+00
1
Step 197000
Ar 1.081714e+00 0.000000e+00 0.000000e+00
1
Step 198000
Ar 8.912046e-01 0.000000e+00 0.000000e+00
1
Step 199000
Ar 8.934141e-01 0.000000e+00 0.000000e+00
1
Step 200000
Ar 8.826572e-01 0.000000e+00 0.000000e+00
1
Step 201000
Ar 9.586739e-01 0.000000e+00 0.000000e+00
1
Step 202000
Ar 1.039672e+00 0.000000e+00 0.000000e+00
1
Step 203000
Ar 1.038587e+00 0.000000e+00 0.000000e+00
1
Step 204000
Ar 1.059342e+00 0.000000e+00 0.000000e+00
1
Step 205000
Ar 9.169424e-01 0.000000e+00 0.000000e+00
1
Step 206000
Ar 8.501153e-01 0.000000e+00 0.000000e+00
1
Step 207000
Ar 1.008775e+00 0.000000e+00 0.000000e+00
1
Step 208000
Ar 9.690349e-01 0.000000e+00 0.000000e+00
1
Step 209000
Ar 9.637681e-01 0.000000e+00 0.000000e+00
1
Step 210000
Ar 9.639430e-01 0.000000e+00 0.000000e+00
1
Step 211000
Ar 1.008953e+00 0.000000e+00 0.000000e+00
1
Step 212000
Ar 9.497655e-01 0.000000e+00 0.000000e+00
1
Step 213000
Ar 1.094392e+00 0.000000e+00 0.000000e+00
1
Step 214000
Ar 8.663295e-01 0.000000e+00 0.000000e+00
1
Step 215000
Ar 1.004276e+00 0.000000e+00 0.000000e+00
1
Step 216000
Ar 9.812792e-01 0.000000e+00 0.000000e+00
1
Step 217000
Ar 1.175801e+00 0.000000e+00 0.000000e+00
1
Step 218000
Ar 1.027959e+00 0.000000e+00 0.000000e+00
1
Step 219000
Ar 9.132740e-01 0.000000e+00 0.000000e+00
1
Step 220000
Ar 8.813621e-01 0.000000e+00 0.000000e+00
1
Step 221000
Ar 9.428911e-01 0.000000e+00 0.000000e+00
1
Step 222000
Ar 1.018615e+00 0.000000e+00 0.000000e+00
1
Step 223000
Ar 9.999487e-01 0.000000e+00 0.000000e+00
1
Step 224000
Ar 1.139511e+00 0.000000e+00 0.000000e+00
1
Step 225000
Ar 9.705214e-01 0.000000e+00 0.000000e+00
1
Step 226000
Ar 8.912366e-01 0.000000e+00 0.000000e+00
1
Step 227000
Ar 1.013692e+00 0.000000e+00 0.000000e+00
1
Step 228000
Ar 1.093336e+00 0.000000e+00 0.000000e+00
1
Step 229000
Ar 1.093674e+00 0.000000e+00 0.000000e+00
1
Step 230000
Ar 1.090640e+00 0.000000e+00 0.000000e+00
1
Step 231000
Ar 1.103140e+00 0.000000e+00 0.000000e+00
1
Step 232000
Ar 8.881358e-01 0.000000e+00 0.000000e+00
1
Step 233000
Ar 9.923350e-01 0.000000e+00 0.000000e+00
1
Step 234000
Ar 1.165380e+00 0.000000e+00 0.000000e+00
1
Step 235000
Ar 9.570555e-01 0.000000e+00 0.000000e+00
1
Step 236000
Ar 9.770277e-01 0.000000e+00 0.000000e+00
1
Step 237000
Ar 1.048338e+00 0.000000e+00 0.000000e+00
1
Step 238000
Ar 1.048082e+00 0.000000e+00 0.000000e+00
1
Step 239000
Ar 9.324893e-01 0.000000e+00 0.000000e+00
1
Step 240000
Ar 1.138972e+00 0.000000e+00 0.000000e+00
1
Step 241000
Ar 9.705233e-01 0.000000e+00 0.000000e+00
1
Step 242000
Ar 1.064104e+00 0.000000e+00 0.000000e+00
1
Step 243000
Ar 1.082789e+00 0.000000e+00 0.000000e+00
1
Step 244000
Ar 1.066836e+00 0.000000e+00 0.000000e+00
1
Step 245000
Ar 1.064605e+00 0.000000e+00 0.000000e+00
1
Step 246000
Ar 8.463044e-01 0.000000e+00 0.000000e+00
1
Step 247000
Ar 7.818042e-01 0.000000e+00 0.000000e+00
1
Step 248000
Ar 9.587035e-01 0.000000e+00 0.000000e+00
1
Step 249000
Ar 8.803074e-01 0.000000e+00 0.000000e+00
1
Step 250000
Ar 9.584572e-01 0.000000e+00 0.000000e+00
1
Step 251000
Ar 8.175010e-01 0.000000e+00 0.000000e+00
1
Step 252000
Ar 8.993972e-01 0.000000e+00 0.000000e+00
1
Step 253000
Ar 1.107692e+00 0.000000e+00 0.000000e+00
1
Step 254000
Ar 9.805558e-01 0.000000e+00 0.000000e+00
1
Step 255000
Ar 9.847528e-01 0.000000e+00 0.000000e+00
1
Step 256000
Ar 9.882907e-01 0.000000e+00 0.000000e+00
1
Step 257000
Ar 9.885894e-01 0.000000e+00 0.000000e+00
1
Step 258000
Ar 9.837754e-01 0.000000e+00 0.000000e+00
1
Step 259000
Ar 9.862477e-01 0.000000e+00 0.000000e+00
1
Step 260000
Ar 9.902057e-01 0.000000e+00 0.000000e+00
1
Step 261000
Ar 7.463950e-01 0.000000e+00 0.000000e+00
1
Step 262000
Ar 8.498795e-01 0.000000e+00 0.000000e+00
1
Step 263000
Ar 7.361227e-01 0.000000e+00 0.000000e+00
1
Step 264000
Ar 1.143132e+00 0.000000e+00 0.000000e+00
1
Step 265000
Ar 8.591357e-01 0.000000e+00 0.000000e+00
1
Step 266000
Ar 9.354480e-01 0.000000e+00 0.000000e+00
1
Step 267000
Ar 1.095188e+00 0.000000e+00 0.000000e+00
1
Step 268000
Ar 1.103050e+00 0.000000e+00 0.000000e+00
1
Step 269000
Ar 9.904301e-01 0.000000e+00 0.000000e+00
1
Step 270000
Ar 9.130140e-01 0.000000e+00 0.000000e+00
1
Step 271000
Ar 8.911171e-01 0.000000e+00 0.000000e+00
1
Step 272000
Ar 9.867315e-01 0.000000e+00 0.000000e+00
1
Step 273000
Ar 1.109897e+00 0.000000e+00 0.000000e+00
1
Step 274000
Ar 1.115867e+00 0.000000e+00 0.000000e+00
1
Step 275000
Ar 8.634122e-01 0.000000e+00 0.000000e+00
1
Step 276000
Ar 9.844079e-01 0.000000e+00 0.000000e+00
1
Step 277000
Ar 9.613946e-01 0.000000e+00 0.000000e+00
1
Step 278000
Ar 8.090833e-01 0.000000e+00 0.000000e+00
1
Step 279000
Ar 1.222797e+00 0.000000e+00 0.000000e+00
1
Step 280000
Ar 9.924915e-01 0.000000e+00 0.000000e+00
1
Step 281000
Ar 9.812179e-01 0.000000e+00 0.000000e+00
1
Step 282000
Ar 7.227440e-01 0.000000e+00 0.000000e+00
1
Step 283000
Ar 1.010601e+00 0.000000e+00 0.000000e+00
1
Step 284000
Ar 1.109002e+00 0.000000e+00 0.000000e+00
1
Step 285000
Ar 7.398039e-01 0.000000e+00 0.000000e+00
1
Step 286000
Ar 1.104491e+00 0.000000e+00 0.000000e+00
1
Step 287000
Ar 9.238455e-01 0.000000e+00 0.000000e+00
1
Step 288000
Ar 1.019311e+00 0.000000e+00 0.000000e+00
1
Step 289000
Ar 8.612187e-01 0.000000e+00 0.000000e+00
1
Step 290000
Ar 8.707747e-01 0.000000e+00 0.000000e+00
1
Step 291000
Ar 9.185562e-01 0.000000e+00 0.000000e+00
1
Step 292000
Ar 9.573864e-01 0.000000e+00 0.000000e+00
1
Step 293000
Ar 7.373073e-01 0.000000e+00 0.000000e+00
1
Step 294000
Ar 8.477277e-01 0.000000e+00 0.000000e+00
1
Step 295000
Ar 9.796889e-01 0.000000e+00 0.000000e+00
1
Step 296000
Ar 9.821936e-01 0.000000e+00 0.000000e+00
1
Step 297000
Ar 9.353162e-01 0.000000e+00 0.000000e+00
1
Step 298000
Ar 9.132644e-01 0.000000e+00 0.000000e+00
1
Step 299000
Ar 1.111298e+00 0.000000e+00 0.000000e+00
1
Step 300000
Ar 8.197108e-01 0.000000e+00 0.000000e+00
1
Step 301000
Ar 9.230328e-01 0.000000e+00 0.000000e+00
1
Step 302000
Ar 9.299348e-01 0.000000e+00 0.000000e+00
1
Step 303000
Ar 7.513639e-01 0.000000e+00 0.000000e+00
1
Step 304000
Ar 1.051364e+00 0.000000e+00 0.000000e+00
1
Step 305000
Ar 9.728108e-01 0.000000e+00 0.000000e+00
1
Step 306000
Ar 9.481106e-01 0.000000e+00 0.000000e+00
1
Step 307000
Ar 7.542923e-01 0.000000e+00 0.000000e+00
1
Step 308000
Ar 1.027040e+00 0.000000e+00 0.000000e+00
1
Step 309000
Ar 1.193391e+00 0.000000e+00 0.000000e+00
1
Step 310000
Ar 8.592095e-01 0.000000e+00 0.000000e+00
1
Step 311000
Ar 9.686544e-01 0.000000e+00 0.000000e+00
1
Step 312000
Ar 1.149003e+00 0.000000e+00 0.000000e+00
1
Step 313000
Ar 8.922140e-01 0.000000e+00 0.000000e+00
1
Step 314000
Ar 9.611023e-01 0.000000e+00 0.000000e+00
1
Step 315000
Ar 9.277871e-01 0.000000e+00 0.000000e+00
1
Step 316000
Ar 9.164592e-01 0.000000e+00 0.000000e+00
1
Step 317000
Ar 1.144918e+00 0.000000e+00 0.000000e+00
1
Step 318000
Ar 9.504992e-01 0.000000e+00 0.000000e+00
1
Step 319000
Ar 8.946545e-01 0.000000e+00 0.000000e+00
1
Step 320000
Ar 1.061145e+00 0.000000e+00 0.000000e+00
1
Step 321000
Ar 9.262390e-01 0.000000e+00 0.000000e+00
1
Step 322000
Ar 5.247385e-01 0.000000e+00 0.000000e+00
1
Step 323000
Ar 7.704912e-01 0.000000e+00 0.000000e+00
1
Step 324000
Ar 8.063985e-01 0.000000e+00 0.000000e+00
1
Step 325000
Ar 9.489456e-01 0.000000e+00 0.000000e+00
1
Step 326000
Ar 9.592224e-01 0.000000e+00 0.000000e+00
1
Step 327000
Ar 1.132134e+00 0.000000e+00 0.000000e+00
1
Step 328000
Ar 8.754938e-01 0.000000e+00 0.000000e+00
1
Step 329000
Ar 8.900077e-01 0.000000e+00 0.000000e+00
1
Step 330000
Ar 8.836158e-01 0.000000e+00 0.000000e+00
1
Step 331000
Ar 8.073164e-01 0.000000e+00 0.000000e+00
1
Step 332000
Ar 1.113681e+00 0.000000e+00 0.000000e+00
1
Step 333000
Ar 1.103494e+00 0.000000e+00 0.000000e+00
1
Step 334000
Ar 1.085303e+00 0.000000e+00 0.000000e+00
1
Step 335000
Ar 1.064902e+00 0.000000e+00 0.000000e+00
1
Step 336000
Ar 1.072787e+00 0.000000e+00 0.000000e+00
1
Step 337000
Ar 7.890340e-01 0.000000e+00 0.000000e+00
1
Step 338000
Ar 9.488955e-01 0.000000e+00 0.000000e+00
1
Step 339000
Ar 9.431075e-01 0.000000e+00 0.000000e+00
1
Step 340000
Ar 9.525590e-01 0.000000e+00 0.000000e+00
1
Step 341000
Ar 9.455482e-01 0.000000e+00 0.000000e+00
1
Step 342000
Ar 1.047352e+00 0.000000e+00 0.000000e+00
1
Step 343000
Ar 9.350639e-01 0.000000e+00 0.000000e+00
1
Step 344000
Ar 9.846631e-01 0.000000e+00 0.000000e+00
1
Step 345000
Ar 8.306272e-01 0.000000e+00 0.000000e+00
1
Step 346000
Ar 1.123200e+00 0.000000e+00 0.000000e+00
1
Step 347000
Ar 1.042063e+00 0.000000e+00 0.000000e+00
1
Step 348000
Ar 8.551893e-01 0.000000e+00 0.000000e+00
1
Step 349000
Ar 8.251227e-01 0.000000e+00 0.000000e+00
1
Step 350000
Ar 9.940871e-01 0.000000e+00 0.000000e+00
1
Step 351000
Ar 8.778221e-01 0.000000e+00 0.000000e+00
1
Step 352000
Ar 9.740852e-01 0.000000e+00 0.000000e+00
1
Step 353000
Ar 1.266736e+00 0.000000e+00 0.000000e+00
1
Step 354000
Ar 8.784451e-01 0.000000e+00 0.000000e+00
1
Step 355000
Ar 9.279229e-01 0.000000e+00 0.000000e+00
1
Step 356000
Ar 9.482133e-01 0.000000e+00 0.000000e+00
1
Step 357000
Ar 9.450913e-01 0.000000e+00 0.000000e+00
1
Step 358000
Ar 9.473357e-01 0.000000e+00 0.000000e+00
1
Step 359000
Ar 9.419972e-01 0.000000e+00 0.000000e+00
1
Step 360000
Ar 1.118571e+00 0.000000e+00 0.000000e+00
1
Step 361000
Ar 9.687698e-01 0.000000e+00 0.000000e+00
1
Step 362000
Ar 8.350257e-01 0.000000e+00 0.000000e+00
1
Step 363000
Ar 8.797578e-01 0.000000e+00 0.000000e+00
1
Step 364000
Ar 6.671047e-01 0.000000e+00 0.000000e+00
1
Step 365000
Ar 1.064673e+00 0.000000e+00 0.000000e+00
1
Step 366000
Ar 9.428358e-01 0.000000e+00 0.000000e+00
1
Step 367000
Ar 1.017834e+00 0.000000e+00 0.000000e+00
1
Step 368000
Ar 9.941967e-01 0.000000e+00 0.000000e+00
1
Step 369000
Ar 8.798037e-01 0.000000e+00 0.000000e+00
1
Step 370000
Ar 1.086550e+00 0.000000e+00 0.000000e+00
1
Step 371000
Ar 8.193231e-01 0.000000e+00 0.000000e+00
1
Step 372000
Ar 8.448069e-01 0.000000e+00 0.000000e+00
1
Step 373000
Ar 9.459889e-01 0.000000e+00 0.000000e+00
1
Step 374000
Ar 9.232784e-01 0.000000e+00 0.000000e+00
1
Step 375000
Ar 9.128764e-01 0.000000e+00 0.000000e+00
1
Step 376000
Ar 9.136474e-01 0.000000e+00 0.000000e+00
1
Step 377000
Ar 1.045347e+00 0.000000e+00 0.000000e+00
1
Step 378000
Ar 1.078820e+00 0.000000e+00 0.000000e+00
1
Step 379000
Ar 8.503910e-01 0.000000e+00 0.000000e+00
1
Step 380000
Ar 1.104298e+00 0.000000e+00 0.000000e+00
1
Step 381000
Ar 7.652533e-01 0.000000e+00 0.000000e+00
1
Step 382000
Ar 5.823848e-01 0.000000e+00 0.000000e+00
1
Step 383000
Ar 8.229211e-01 0.000000e+00 0.000000e+00
1
Step 384000
Ar 1.066730e+00 0.000000e+00 0.000000e+00
1
Step 385000
Ar 1.042726e+00 0.000000e+00 0.000000e+00
1
Step 386000
Ar 8.775434e-01 0.000000e+00 0.000000e+00
1
Step 387000
Ar 8.833818e-01 0.000000e+00 0.000000e+00
1
Step 388000
Ar 8.763381e-01 0.000000e+00 0.000000e+00
1
Step 389000
Ar 1.108445e+00 0.000000e+00 0.000000e+00
1
Step 390000
Ar 1.105989e+00 0.000000e+00 0.000000e+00
1
Step 391000
Ar 9.905787e-01 0.000000e+00 0.000000e+00
1
Step 392000
Ar 1.032404e+00 0.000000e+00 0.000000e+00
1
Step 393000
Ar 9.771531e-01 0.000000e+00 0.000000e+00
1
Step 394000
Ar 9.148933e-01 0.000000e+00 0.000000e+00
1
Step 395000
Ar 9.162897e-01 0.000000e+00 0.000000e+00
1
Step 396000
Ar 1.271142e+00 0.000000e+00 0.000000e+00
1
Step 397000
Ar 1.078997e+00 0.000000e+00 0.000000e+00
1
Step 398000
Ar 7.593513e-01 0.000000e+00 0.000000e+00
1
Step 399000
Ar 9.490705e-01 0.000000e+00 0.000000e+00
1
Step 400000
Ar 1.032482e+00 0.000000e+00 0.000000e+00
1
Step 401000
Ar 1.019517e+00 0.000000e+00 0.000000e+00
1
Step 402000
Ar -1.003595e+00 0.000000e+00 0.000000e+00
1
Step 403000
Ar -1.007071e+00 0.000000e+00 0.000000e+00
1
Step 404000
Ar -1.009540e+00 0.000000e+00 0.000000e+00
1
Step 405000
Ar -9.974984e-01 0.000000e+00 0.000000e+00
1
Step 406000
Ar -9.973952e-01 0.000000e+00 0.000000e+00
1
Step 407000
Ar -1.008895e+00 0.000000e+00 0.000000e+00
1
Step 408000
Ar -9.874400e-01 0.000000e+00 0.000000e+00
1
Step 409000
Ar -1.005800e+00 0.000000e+00 0.000000e+00
1
Step 410000
Ar -9.998910e-01 0.000000e+00 0.000000e+00
1
Step 411000
Ar -1.004933e+00 0.000000e+00 0.000000e+00
1
Step 412000
Ar -1.044440e+00 0.000000e+00 0.000000e+00
1
Step 413000
Ar -1.013742e+00 0.000000e+00 0.000000e+00
1
Step 414000
Ar -1.039276e+00 0.000000e+00 0.000000e+00
1
Step 415000
Ar -1.027958e+00 0.000000e+00 0.000000e+00
1
Step 416000
Ar -1.027480e+00 0.000000e+00 0.000000e+00
1
Step 417000
Ar -9.829061e-01 0.000000e+00 0.000000e+00
1
Step 418000
Ar -9.820384e-01 0.000000e+00 0.000000e+00
1
Step 419000
Ar -9.734137e-01 0.000000e+00 0.000000e+00
1
Step 420000
Ar -9.740465e-01 0.000000e+00 0.000000e+00
1
Step 421000
Ar -9.829733e-01 0.000000e+00 0.000000e+00
1
Step 422000
Ar -9.796475e-01 0.000000e+00 0.000000e+00
1
Step 423000
Ar -9.853809e-01 0.000000e+00 0.000000e+00
1
Step 424000
Ar -9.773444e-01 0.000000e+00 0.000000e+00
1
Step 425000
Ar -9.800839e-01 0.000000e+00 0.000000e+00
1
Step 426000
Ar -9.560622e-01 0.000000e+00 0.000000e+00
1
Step 427000
Ar -9.652900e-01 0.000000e+00 0.000000e+00
1
Step 428000
Ar -9.736030e-01 0.000000e+00 0.000000e+00
1
Step 429000
Ar -9.555302e-01 0.000000e+00 0.000000e+00
1
Step 430000
Ar -9.502001e-01 0.000000e+00 0.000000e+00
1
Step 431000
Ar -1.007797e+00 0.000000e+00 0.000000e+00
1
Step 432000
Ar -9.424744e-01 0.000000e+00 0.000000e+00
1
Step 433000
Ar -9.468835e-01 0.000000e+00 0.000000e+00
1
Step 434000
Ar -9.466625e-01 0.000000e+00 0.000000e+00
1
Step 435000
Ar -9.479622e-01 0.000000e+00 0.000000e+00
1
Step 436000
Ar -9.488327e-01 0.000000e+00 0.000000e+00
1
Step 437000
Ar -9.397123e-01 0.000000e+00 0.000000e+00
1
Step 438000
Ar -1.006524e+00 0.000000e+00 0.000000e+00
1
Step 439000
Ar -1.008110e+00 0.000000e+00 0.000000e+00
1
Step 440000
Ar -1.005051e+00 0.000000e+00 0.000000e+00
1
Step 441000
Ar -1.003596e+00 0.000000e+00 0.000000e+00
1
Step 442000
Ar -9.969519e-01 0.000000e+00 0.000000e+00
1
Step 443000
Ar -9.539834e-01 0.000000e+00 0.000000e+00
1
Step 444000
Ar -1.048844e+00 0.000000e+00 0.000000e+00
1
Step 445000
Ar -1.051345e+00 0.000000e+00 0.000000e+00
1
Step 446000
Ar -9.338751e-01 0.000000e+00 0.000000e+00
1
Step 447000
Ar -9.356565e-01 0.000000e+00 0.000000e+00
1
Step 448000
Ar -9.296098e-01 0.000000e+00 0.000000e+00
1
Step 449000
Ar -9.377528e-01 0.000000e+00 0.000000e+00
1
Step 450000
Ar -9.357206e-01 0.000000e+00 0.000000e+00
1
Step 451000
Ar -9.194846e-01 0.000000e+00 0.000000e+00
1
Step 452000
Ar -9.205397e-01 0.000000e+00 0.000000e+00
1
Step 453000
Ar -9.217733e-01 0.000000e+00 0.000000e+00
1
Step 454000
Ar -9.202018e-01 0.000000e+00 0.000000e+00
1
Step 455000
Ar -1.000652e+00 0.000000e+00 0.000000e+00
1
Step 456000
Ar -9.992484e-01 0.000000e+00 0.000000e+00
1
Step 457000
Ar -9.998663e-01 0.000000e+00 0.000000e+00
1
Step 458000
Ar -1.067022e+00 0.000000e+00 0.000000e+00
1
Step 459000
Ar -1.060399e+00 0.000000e+00 0.000000e+00
1
Step 460000
Ar -1.064627e+00 0.000000e+00 0.000000e+00
1
Step 461000
Ar -1.060818e+00 0.000000e+00 0.000000e+00
1
Step 462000
Ar -1.067435e+00 0.000000e+00 0.000000e+00
1
Step 463000
Ar -1.070252e+00 0.000000e+00 0.000000e+00
1
Step 464000
Ar -1.064445e+00 0.000000e+00 0.000000e+00
1
Step 465000
Ar -1.063246e+00 0.000000e+00 0.000000e+00
1
Step 466000
Ar -1.065033e+00 0.000000e+00 0.000000e+00
1
Step 467000
Ar -1.132980e+00 0.000000e+00 0.000000e+00
1
Step 468000
Ar -1.064132e+00 0.000000e+00 0.000000e+00
1
Step 469000
Ar -1.065305e+00 0.000000e+00 0.000000e+00
1
Step 470000
Ar -1.063899e+00 0.000000e+00 0.000000e+00
1
Step 471000
Ar -1.065925e+00 0.000000e+00 0.000000e+00
1
Step 472000
Ar -1.060876e+00 0.000000e+00 0.000000e+00
1
Step 473000
Ar -1.064208e+00 0.000000e+00 0.000000e+00
1
Step 474000
Ar -1.061761e+00 0.000000e+00 0.000000e+00
1
Step 475000
Ar -9.227743e-01 0.000000e+00 0.000000e+00
1
Step 476000
Ar -9.657431e-01 0.000000e+00 0.000000e+00
1
Step 477000
Ar -9.786032e-01 0.000000e+00 0.000000e+00
1
Step 478000
Ar -9.703816e-01 0.000000e+00 0.000000e+00
1
Step 479000
Ar -9.818976e-01 0.000000e+00 0.000000e+00
1
Step 480000
Ar -9.763349e-01 0.000000e+00 0.000000e+00
1
Step 481000
Ar -9.822841e-01 0.000000e+00 0.000000e+00
1
Step 482000
Ar -9.797391e-01 0.000000e+00 0.000000e+00
1
Step 483000
Ar -9.834590e-01 0.000000e+00 0.000000e+00
1
Step 484000
Ar -9.918424e-01 0.000000e+00 0.000000e+00
1
Step 485000
Ar -9.813532e-01 0.000000e+00 0.000000e+00
1
Step 486000
Ar -9.809429e-01 0.000000e+00 0.000000e+00
1
Step 487000
Ar -9.813834e-01 0.000000e+00 0.000000e+00
1
Step 488000
Ar -9.753804e-01 0.000000e+00 0.000000e+00
1
Step 489000
Ar -9.807414e-01 0.000000e+00 0.000000e+00
1
Step 490000
Ar -9.806896e-01 0.000000e+00 0.000000e+00
1
Step 491000
Ar -9.821727e-01 0.000000e+00 0.000000e+00
1
Step 492000
Ar -1.070574e+00 0.000000e+00 0.000000e+00
1
Step 493000
Ar -1.072928e+00 0.000000e+00 0.000000e+00
1
Step 494000
Ar -1.069799e+00 0.000000e+00 0.000000e+00
1
Step 495000
Ar -1.077438e+00 0.000000e+00 0.000000e+00
1
Step 496000
Ar -8.980841e-01 0.000000e+00 0.000000e+00
1
Step 497000
Ar -9.957647e-01 0.000000e+00 0.000000e+00
1
Step 498000
Ar -9.797981e-01 0.000000e+00 0.000000e+00
1
Step 499000
Ar -9.761022e-01 0.000000e+00 0.000000e+00
1
Step 500000
Ar -9.900243e-01 0.000000e+00 0.000000e+00
1
Step 501000
Ar -9.849460e-01 0.000000e+00 0.000000e+00
1
Step 502000
Ar -9.852627e-01 0.000000e+00 0.000000e+00
1
Step 503000
Ar -9.846962e-01 0.000000e+00 0.000000e+00
1
Step 504000
Ar -9.845728e-01 0.000000e+00 0.000000e+00
1
Step 505000
Ar -9.868618e-01 0.000000e+00 0.000000e+00
1
Step 506000
Ar -9.788167e-01 0.000000e+00 0.000000e+00
1
Step 507000
Ar -1.037989e+00 0.000000e+00 0.000000e+00
1
Step 508000
Ar -1.012223e+00 0.000000e+00 0.000000e+00
1
Step 509000
Ar -1.019147e+00 0.000000e+00 0.000000e+00
1
Step 510000
Ar -1.014577e+00 0.000000e+00 0.000000e+00
1
Step 511000
Ar -1.011929e+00 0.000000e+00 0.000000e+00
1
Step 512000
Ar -1.014173e+00 0.000000e+00 0.000000e+00
1
Step 513000
Ar -9.939257e-01 0.000000e+00 0.000000e+00
1
Step 514000
Ar -9.913537e-01 0.000000e+00 0.000000e+00
1
Step 515000
Ar -9.924396e-01 0.000000e+00 0.000000e+00
1
Step 516000
Ar -9.902362e-01 0.000000e+00 0.000000e+00
1
Step 517000
Ar -1.051373e+00 0.000000e+00 0.000000e+00
1
Step 518000
Ar -1.037606e+00 0.000000e+00 0.000000e+00
1
Step 519000
Ar -1.048467e+00 0.000000e+00 0.000000e+00
1
Step 520000
Ar -1.046805e+00 0.000000e+00 0.000000e+00
1
Step 521000
Ar -1.016706e+00 0.000000e+00 0.000000e+00
1
Step 522000
Ar -9.503751e-01 0.000000e+00 0.000000e+00
1
Step 523000
Ar -9.162331e-01 0.000000e+00 0.000000e+00
1
Step 524000
Ar -1.152734e+00 0.000000e+00 0.000000e+00
1
Step 525000
Ar -8.834737e-01 0.000000e+00 0.000000e+00
1
Step 526000
Ar -8.813647e-01 0.000000e+00 0.000000e+00
1
Step 527000
Ar -8.816287e-01 0.000000e+00 0.000000e+00
1
Step 528000
Ar -8.835515e-01 0.000000e+00 0.000000e+00
1
Step 529000
Ar -8.872181e-01 0.000000e+00 0.000000e+00
1
Step 530000
Ar -1.036204e+00 0.000000e+00 0.000000e+00
1
Step 531000
Ar -8.831472e-01 0.000000e+00 0.000000e+00
1
Step 532000
Ar -9.269282e-01 0.000000e+00 0.000000e+00
1
Step 533000
Ar -1.014664e+00 0.000000e+00 0.000000e+00
1
Step 534000
Ar -1.085371e+00 0.000000e+00 0.000000e+00
1
Step 535000
Ar -1.086260e+00 0.000000e+00 0.000000e+00
1
Step 536000
Ar -1.083900e+00 0.000000e+00 0.000000e+00
1
Step 537000
Ar -1.078908e+00 0.000000e+00 0.000000e+00
1
Step 538000
Ar -1.090812e+00 0.000000e+00 0.000000e+00
1
Step 539000
Ar -1.091960e+00 0.000000e+00 0.000000e+00
1
Step 540000
Ar -1.088692e+00 0.000000e+00 0.000000e+00
1
Step 541000
Ar -1.090490e+00 0.000000e+00 0.000000e+00
1
Step 542000
Ar -1.090772e+00 0.000000e+00 0.000000e+00
1
Step 543000
Ar -9.698708e-01 0.000000e+00 0.000000e+00
1
Step 544000
Ar -1.058493e+00 0.000000e+00 0.000000e+00
1
Step 545000
Ar -8.883179e-01 0.000000e+00 0.000000e+00
1
Step 546000
Ar -8.862545e-01 0.000000e+00 0.000000e+00
1
Step 547000
Ar -1.051630e+00 0.000000e+00 0.000000e+00
1
Step 548000
Ar -1.053321e+00 0.000000e+00 0.000000e+00
1
Step 549000
Ar -1.050964e+00 0.000000e+00 0.000000e+00
1
Step 550000
Ar -9.007375e-01 0.000000e+00 0.000000e+00
1
Step 551000
Ar -9.892677e-01 0.000000e+00 0.000000e+00
1
Step 552000
Ar -8.758787e-01 0.000000e+00 0.000000e+00
1
Step 553000
Ar -8.771986e-01 0.000000e+00 0.000000e+00
1
Step 554000
Ar -8.768730e-01 0.000000e+00 0.000000e+00
1
Step 555000
Ar -8.731160e-01 0.000000e+00 0.000000e+00
1
Step 556000
Ar -8.751521e-01 0.000000e+00 0.000000e+00
1
Step 557000
Ar -8.790596e-01 0.000000e+00 0.000000e+00
1
Step 558000
Ar -1.033124e+00 0.000000e+00 0.000000e+00
1
Step 559000
Ar -9.380553e-01 0.000000e+00 0.000000e+00
1
Step 560000
Ar -8.638550e-01 0.000000e+00 0.000000e+00
1
Step 561000
Ar -9.163385e-01 0.000000e+00 0.000000e+00
1
Step 562000
Ar -1.068454e+00 0.000000e+00 0.000000e+00
1
Step 563000
Ar -8.799418e-01 0.000000e+00 0.000000e+00
1
Step 564000
Ar -1.085438e+00 0.000000e+00 0.000000e+00
1
Step 565000
Ar -9.666077e-01 0.000000e+00 0.000000e+00
1
Step 566000
Ar -1.035404e+00 0.000000e+00 0.000000e+00
1
Step 567000
Ar -7.208084e-01 0.000000e+00 0.000000e+00
1
Step 568000
Ar -9.619399e-01 0.000000e+00 0.000000e+00
1
Step 569000
Ar -8.647162e-01 0.000000e+00 0.000000e+00
1
Step 570000
Ar -1.012381e+00 0.000000e+00 0.000000e+00
1
Step 571000
Ar -8.652613e-01 0.000000e+00 0.000000e+00
1
Step 572000
Ar -9.901800e-01 0.000000e+00 0.000000e+00
1
Step 573000
Ar -9.927216e-01 0.000000e+00 0.000000e+00
1
Step 574000
Ar -1.123595e+00 0.000000e+00 0.000000e+00
1
Step 575000
Ar -7.667060e-01 0.000000e+00 0.000000e+00
1
Step 576000
Ar -9.787080e-01 0.000000e+00 0.000000e+00
1
Step 577000
Ar -6.936806e-01 0.000000e+00 0.000000e+00
1
Step 578000
Ar -9.551245e-01 0.000000e+00 0.000000e+00
1
Step 579000
Ar -9.162619e-01 0.000000e+00 0.000000e+00
1
Step 580000
Ar -8.260320e-01 0.000000e+00 0.000000e+00
1
Step 581000
Ar -1.140446e+00 0.000000e+00 0.000000e+00
1
Step 582000
Ar -1.084407e+00 0.000000e+00 0.000000e+00
1
Step 583000
Ar -1.108403e+00 0.000000e+00 0.000000e+00
1
Step 584000
Ar -1.103536e+00 0.000000e+00 0.000000e+00
1
Step 585000
Ar -7.967657e-01 0.000000e+00 0.000000e+00
1
Step 586000
Ar -9.430618e-01 0.000000e+00 0.000000e+00
1
Step 587000
Ar -9.452008e-01 0.000000e+00 0.000000e+00
1
Step 588000
Ar -1.161394e+00 0.000000e+00 0.000000e+00
1
Step 589000
Ar -1.056511e+00 0.000000e+00 0.000000e+00
1
Step 590000
Ar -9.549057e-01 0.000000e+00 0.000000e+00
1
Step 591000
Ar -1.034363e+00 0.000000e+00 0.000000e+00
1
Step 592000
Ar -9.441349e-01 0.000000e+00 0.000000e+00
1
Step 593000
Ar -1.113288e+00 0.000000e+00 0.000000e+00
1
Step 594000
Ar -1.147250e+00 0.000000e+00 0.000000e+00
1
Step 595000
Ar -9.692242e-01 0.000000e+00 0.000000e+00
1
Step 596000
Ar -1.071501e+00 0.000000e+00 0.000000e+00
1
Step 597000
Ar -1.071552e+00 0.000000e+00 0.000000e+00
1
Step 598000
Ar -1.075847e+00 0.000000e+00 0.000000e+00
1
Step 599000
Ar -8.631688e-01 0.000000e+00 0.000000e+00
1
Step 600000
Ar -8.587023e-01 0.000000e+00 0.000000e+00
1
Step 601000
Ar -9.813477e-01 0.000000e+00 0.000000e+00
1
Step 602000
Ar -8.759859e-01 0.000000e+00 0.000000e+00
1
Step 603000
Ar -1.068111e+00 0.000000e+00 0.000000e+00
1
Step 604000
Ar -6.822292e-01 0.000000e+00 0.000000e+00
1
Step 605000
Ar -1.001653e+00 0.000000e+00 0.000000e+00
1
Step 606000
Ar -9.955242e-01 0.000000e+00 0.000000e+00
1
Step 607000
Ar -9.501960e-01 0.000000e+00 0.000000e+00
1
Step 608000
Ar -9.513232e-01 0.000000e+00 0.000000e+00
1
Step 609000
Ar -8.857823e-01 0.000000e+00 0.000000e+00
1
Step 610000
Ar -9.972106e-01 0.000000e+00 0.000000e+00
1
Step 611000
Ar -9.874857e-01 0.000000e+00 0.000000e+00
1
Step 612000
Ar -9.407193e-01 0.000000e+00 0.000000e+00
1
Step 613000
Ar -7.105860e-01 0.000000e+00 0.000000e+00
1
Step 614000
Ar -9.500719e-01 0.000000e+00 0.000000e+00
1
Step 615000
Ar -1.130265e+00 0.000000e+00 0.000000e+00
1
Step 616000
Ar -9.712909e-01 0.000000e+00 0.000000e+00
1
Step 617000
Ar -9.659361e-01 0.000000e+00 0.000000e+00
1
Step 618000
Ar -9.714800e-01 0.000000e+00 0.000000e+00
1
Step 619000
Ar -9.438232e-01 0.000000e+00 0.000000e+00
1
Step 620000
Ar -1.070335e+00 0.000000e+00 0.000000e+00
1
Step 621000
Ar -1.011678e+00 0.000000e+00 0.000000e+00
1
Step 622000
Ar -8.338435e-01 0.000000e+00 0.000000e+00
1
Step 623000
Ar -1.006740e+00 0.000000e+00 0.000000e+00
1
Step 624000
Ar -1.069652e+00 0.000000e+00 0.000000e+00
1
Step 625000
Ar -8.415387e-01 0.000000e+00 0.000000e+00
1
Step 626000
Ar -9.844432e-01 0.000000e+00 0.000000e+00
1
Step 627000
Ar -1.072451e+00 0.000000e+00 0.000000e+00
1
Step 628000
Ar -1.071097e+00 0.000000e+00 0.000000e+00
1
Step 629000
Ar -1.212983e+00 0.000000e+00 0.000000e+00
1
Step 630000
Ar -6.704652e-01 0.000000e+00 0.000000e+00
1
Step 631000
Ar -9.987451e-01 0.000000e+00 0.000000e+00
1
Step 632000
Ar -1.102174e+00 0.000000e+00 0.000000e+00
1
Step 633000
Ar -1.071081e+00 0.000000e+00 0.000000e+00
1
Step 634000
Ar -9.321528e-01 0.000000e+00 0.000000e+00
1
Step 635000
Ar -9.370395e-01 0.000000e+00 0.000000e+00
1
Step 636000
Ar -9.404462e-01 0.000000e+00 0.000000e+00
1
Step 637000
Ar -9.422246e-01 0.000000e+00 0.000000e+00
1
Step 638000
Ar -9.344412e-01 0.000000e+00 0.000000e+00
1
Step 639000
Ar -1.122418e+00 0.000000e+00 0.000000e+00
1
Step 640000
Ar -1.136534e+00 0.000000e+00 0.000000e+00
1
Step 641000
Ar -9.152052e-01 0.000000e+00 0.000000e+00
1
Step 642000
Ar -9.352613e-01 0.000000e+00 0.000000e+00
1
Step 643000
Ar -3.926625e-01 0.000000e+00 0.000000e+00
1
Step 644000
Ar -7.786583e-01 0.000000e+00 0.000000e+00
1
Step 645000
Ar -1.084553e+00 0.000000e+00 0.000000e+00
1
Step 646000
Ar -9.362175e-01 0.000000e+00 0.000000e+00
1
Step 647000
Ar -9.130169e-01 0.000000e+00 0.000000e+00
1
Step 648000
Ar -9.322938e-01 0.000000e+00 0.000000e+00
1
Step 649000
Ar -1.065041e+00 0.000000e+00 0.000000e+00
1
Step 650000
Ar -1.173019e+00 0.000000e+00 0.000000e+00
1
Step 651000