1
Step 120000
Ar 1.002060e+00 0.000000e+00 0.000000e+00
1
Step 121000
Ar 1.013750e+00 0.000000e+00 0.000000e+00
1
Step 122000
Ar 9.855114e-01 0.000000e+00 0.000000e+00
1
Step 123000
Ar 9.890039e-01 0.000000e+00 0.000000e+00
1
Step 124000
Ar 9.902843e-01 0.000000e+00 0.000000e+00
1
Step 125000
Ar 1.022547e+00 0.000000e+00 0.000000e+00
1
Step 126000
Ar 1.003889e+00 0.000000e+00 0.000000e+00
1
Step 127000
Ar 9.957014e-01 0.000000e+00 0.000000e+00
1
Step 128000
Ar 1.003792e+00 0.000000e+00 0.000000e+00
1
Step 129000
Ar 9.899865e-01 0.000000e+00 0.000000e+00
1
Step 130000
Ar 1.011763e+00 0.000000e+00 0.000000e+00
1
Step 131000
Ar 9.865907e-01 0.000000e+00 0.000000e+00
1
Step 132000
Ar 9.870974e-01 0.000000e+00 0.000000e+00
1
Step 133000
Ar 9.821165e-01 0.000000e+00 0.000000e+00
1
Step 134000
Ar 9.916635e-01 0.000000e+00 0.000000e+00
1
Step 135000
Ar 9.859403e-01 0.000000e+00 0.000000e+00
1
Step 136000
Ar 9.865029e-01 0.000000e+00 0.000000e+00
1
Step 137000
Ar 9.690278e-01 0.000000e+00 0.000000e+00
1
Step 138000
Ar 9.695849e-01 0.000000e+00 0.000000e+00
1
Step 139000
Ar 1.012644e+00 0.000000e+00 0.000000e+00
1
Step 140000
Ar 9.626671e-01 0.000000e+00 0.000000e+00
1
Step 141000
Ar 9.650798e-01 0.000000e+00 0.000000e+00
1
Step 142000
Ar 9.688063e-01 0.000000e+00 0.000000e+00
1
Step 143000
Ar 9.440109e-01 0.000000e+00 0.000000e+00
1
Step 144000
Ar 9.378727e-01 0.000000e+00 0.000000e+00
1
Step 145000
Ar 9.353567e-01 0.000000e+00 0.000000e+00
1
Step 146000
Ar 9.379862e-01 0.000000e+00 0.000000e+00
1
Step 147000
Ar 9.384971e-01 0.000000e+00 0.000000e+00
1
Step 148000
Ar 9.352777e-01 0.000000e+00 0.000000e+00
1
Step 149000
Ar 9.216223e-01 0.000000e+00 0.000000e+00
1
Step 150000
Ar 1.038396e+00 0.000000e+00 0.000000e+00
1
Step 151000
Ar 9.933358e-01 0.000000e+00 0.000000e+00
1
Step 152000
Ar 9.699172e-01 0.000000e+00 0.000000e+00
1
Step 153000
Ar 9.280866e-01 0.000000e+00 0.000000e+00
1
Step 154000
Ar 1.046337e+00 0.000000e+00 0.000000e+00
1
Step 155000
Ar 1.055556e+00 0.000000e+00 0.000000e+00
1
Step 156000
Ar 1.059642e+00 0.000000e+00 0.000000e+00
1
Step 157000
Ar 9.927949e-01 0.000000e+00 0.000000e+00
1
Step 158000
Ar 9.937005e-01 0.000000e+00 0.000000e+00
1
Step 159000
Ar 1.015626e+00 0.000000e+00 0.000000e+00
1
Step 160000
Ar 1.018495e+00 0.000000e+00 0.000000e+00
1
Step 161000
Ar 9.680713e-01 0.000000e+00 0.000000e+00
1
Step 162000
Ar 9.893997e-01 0.000000e+00 0.000000e+00
1
Step 163000
Ar 9.658693e-01 0.000000e+00 0.000000e+00
1
Step 164000
Ar 9.843996e-01 0.000000e+00 0.000000e+00
1
Step 165000
Ar 9.942730e-01 0.000000e+00 0.000000e+00
1
Step 166000
Ar 1.030489e+00 0.000000e+00 0.000000e+00
1
Step 167000
Ar 1.033440e+00 0.000000e+00 0.000000e+00
1
Step 168000
Ar 9.961241e-01 0.000000e+00 0.000000e+00
1
Step 169000
Ar 9.865512e-01 0.000000e+00 0.000000e+00
1
Step 170000
Ar 9.686226e-01 0.000000e+00 0.000000e+00
1
Step 171000
Ar 1.073934e+00 0.000000e+00 0.000000e+00
1
Step 172000
Ar 1.066781e+00 0.000000e+00 0.000000e+00
1
Step 173000
Ar 1.063566e+00 0.000000e+00 0.000000e+00
1
Step 174000
Ar 1.073886e+00 0.000000e+00 0.000000e+00
1
Step 175000
Ar 1.085957e+00 0.000000e+00 0.000000e+00
1
Step 176000
Ar 8.950718e-01 0.000000e+00 0.000000e+00
1
Step 177000
Ar 1.097642e+00 0.000000e+00 0.000000e+00
1
Step 178000
Ar 8.807202e-01 0.000000e+00 0.000000e+00
1
Step 179000
Ar 9.093792e-01 0.000000e+00 0.000000e+00
1
Step 180000
Ar 9.088001e-01 0.000000e+00 0.000000e+00
1
Step 181000
Ar 9.550910e-01 0.000000e+00 0.000000e+00
1
Step 182000
Ar 9.834454e-01 0.000000e+00 0.000000e+00
1
Step 183000
Ar 9.768636e-01 0.000000e+00 0.000000e+00
1
Step 184000
Ar 1.063829e+00 0.000000e+00 0.000000e+00
1
Step 185000
Ar 9.740187e-01 0.000000e+00 0.000000e+00
1
Step 186000
Ar 9.973155e-01 0.000000e+00 0.000000e+00
1
Step 187000
Ar 9.849196e-01 0.000000e+00 0.000000e+00
1
Step 188000
Ar 1.009671e+00 0.000000e+00 0.000000e+00
1
Step 189000
Ar 8.830968e-01 0.000000e+00 0.000000e+00
1
Step 190000
Ar 9.522568e-01 0.000000e+00 0.000000e+00
1
Step 191000
Ar 1.089078e+00 0.000000e+00 0.000000e+00
1
Step 192000
Ar 1.086198e+00 0.000000e+00 0.000000e+00
1
Step 193000
Ar 9.310090e-01 0.000000e+00 0.000000e+00
1
Step 194000
Ar 1.080729e+00 0.000000e+00 0.000000e+00
1
Step 195000
Ar 1.059579e+00 0.000000e+00 0.000000e+00
1
Step 196000
Ar 1.088842e+00 0.000000e+00 0.000000e+00
1
Step 197000
Ar 1.095780e+00 0.000000e+00 0.000000e+00
1
Step 198000
Ar 1.090775e+00 0.000000e+00 0.000000e+00
1
Step 199000
Ar 1.089292e+00 0.000000e+00 0.000000e+00
1
Step 200000
Ar 9.146640e-01 0.000000e+00 0.000000e+00
1
Step 201000
Ar 1.077731e+00 0.000000e+00 0.000000e+00
1
Step 202000
Ar 8.782498e-01 0.000000e+00 0.000000e+00
1
Step 203000
Ar 1.101088e+00 0.000000e+00 0.000000e+00
1
Step 204000
Ar 1.000295e+00 0.000000e+00 0.000000e+00
1
Step 205000
Ar 1.062983e+00 0.000000e+00 0.000000e+00
1
Step 206000
Ar 9.108847e-01 0.000000e+00 0.000000e+00
1
Step 207000
Ar 8.338660e-01 0.000000e+00 0.000000e+00
1
Step 208000
Ar 1.019322e+00 0.000000e+00 0.000000e+00
1
Step 209000
Ar 1.142961e+00 0.000000e+00 0.000000e+00
1
Step 210000
Ar 9.790478e-01 0.000000e+00 0.000000e+00
1
Step 211000
Ar 9.822115e-01 0.000000e+00 0.000000e+00
1
Step 212000
Ar 9.854261e-01 0.000000e+00 0.000000e+00
1
Step 213000
Ar 8.704151e-01 0.000000e+00 0.000000e+00
1
Step 214000
Ar 1.041275e+00 0.000000e+00 0.000000e+00
1
Step 215000
Ar 9.652187e-01 0.000000e+00 0.000000e+00
1
Step 216000
Ar 9.572723e-01 0.000000e+00 0.000000e+00
1
Step 217000
Ar 9.200009e-01 0.000000e+00 0.000000e+00
1
Step 218000
Ar 9.097782e-01 0.000000e+00 0.000000e+00
1
Step 219000
Ar 9.317258e-01 0.000000e+00 0.000000e+00
1
Step 220000
Ar 9.308214e-01 0.000000e+00 0.000000e+00
1
Step 221000
Ar 9.503049e-01 0.000000e+00 0.000000e+00
1
Step 222000
Ar 9.828617e-01 0.000000e+00 0.000000e+00
1
Step 223000
Ar 9.779443e-01 0.000000e+00 0.000000e+00
1
Step 224000
Ar 9.813250e-01 0.000000e+00 0.000000e+00
1
Step 225000
Ar 9.862280e-01 0.000000e+00 0.000000e+00
1
Step 226000
Ar 9.235518e-01 0.000000e+00 0.000000e+00
1
Step 227000
Ar 9.055752e-01 0.000000e+00 0.000000e+00
1
Step 228000
Ar 9.134992e-01 0.000000e+00 0.000000e+00
1
Step 229000
Ar 9.115210e-01 0.000000e+00 0.000000e+00
1
Step 230000
Ar 9.072311e-01 0.000000e+00 0.000000e+00
1
Step 231000
Ar 9.083594e-01 0.000000e+00 0.000000e+00
1
Step 232000
Ar 9.107135e-01 0.000000e+00 0.000000e+00
1
Step 233000
Ar 9.085785e-01 0.000000e+00 0.000000e+00
1
Step 234000
Ar 9.065155e-01 0.000000e+00 0.000000e+00
1
Step 235000
Ar 9.095837e-01 0.000000e+00 0.000000e+00
1
Step 236000
Ar 9.086903e-01 0.000000e+00 0.000000e+00
1
Step 237000
Ar 9.148244e-01 0.000000e+00 0.000000e+00
1
Step 238000
Ar 9.099709e-01 0.000000e+00 0.000000e+00
1
Step 239000
Ar 9.113953e-01 0.000000e+00 0.000000e+00
1
Step 240000
Ar 9.069266e-01 0.000000e+00 0.000000e+00
1
Step 241000
Ar 9.128781e-01 0.000000e+00 0.000000e+00
1
Step 242000
Ar 9.110661e-01 0.000000e+00 0.000000e+00
1
Step 243000
Ar 9.106087e-01 0.000000e+00 0.000000e+00
1
Step 244000
Ar 9.121977e-01 0.000000e+00 0.000000e+00
1
Step 245000
Ar 9.291308e-01 0.000000e+00 0.000000e+00
1
Step 246000
Ar 1.175330e+00 0.000000e+00 0.000000e+00
1
Step 247000
Ar 9.573788e-01 0.000000e+00 0.000000e+00
1
Step 248000
Ar 1.027376e+00 0.000000e+00 0.000000e+00
1
Step 249000
Ar 9.200306e-01 0.000000e+00 0.000000e+00
1
Step 250000
Ar 9.261879e-01 0.000000e+00 0.000000e+00
1
Step 251000
Ar 9.987014e-01 0.000000e+00 0.000000e+00
1
Step 252000
Ar 1.111446e+00 0.000000e+00 0.000000e+00
1
Step 253000
Ar 1.021521e+00 0.000000e+00 0.000000e+00
1
Step 254000
Ar 8.906596e-01 0.000000e+00 0.000000e+00
1
Step 255000
Ar 7.166480e-01 0.000000e+00 0.000000e+00
1
Step 256000
Ar 9.268773e-01 0.000000e+00 0.000000e+00
1
Step 257000
Ar 9.026024e-01 0.000000e+00 0.000000e+00
1
Step 258000
Ar 1.174202e+00 0.000000e+00 0.000000e+00
1
Step 259000
Ar 1.084266e+00 0.000000e+00 0.000000e+00
1
Step 260000
Ar 1.115098e+00 0.000000e+00 0.000000e+00
1
Step 261000
Ar 1.010262e+00 0.000000e+00 0.000000e+00
1
Step 262000
Ar 8.949382e-01 0.000000e+00 0.000000e+00
1
Step 263000
Ar 8.941504e-01 0.000000e+00 0.000000e+00
1
Step 264000
Ar 1.184817e+00 0.000000e+00 0.000000e+00
1
Step 265000
Ar 6.486803e-01 0.000000e+00 0.000000e+00
1
Step 266000
Ar 8.011013e-01 0.000000e+00 0.000000e+00
1
Step 267000
Ar 7.963251e-01 0.000000e+00 0.000000e+00
1
Step 268000
Ar 1.079387e+00 0.000000e+00 0.000000e+00
1
Step 269000
Ar 9.087120e-01 0.000000e+00 0.000000e+00
1
Step 270000
Ar 9.149592e-01 0.000000e+00 0.000000e+00
1
Step 271000
Ar 9.717066e-01 0.000000e+00 0.000000e+00
1
Step 272000
Ar 9.609365e-01 0.000000e+00 0.000000e+00
1
Step 273000
Ar 9.169955e-01 0.000000e+00 0.000000e+00
1
Step 274000
Ar 6.554724e-01 0.000000e+00 0.000000e+00
1
Step 275000
Ar 1.122951e+00 0.000000e+00 0.000000e+00
1
Step 276000
Ar 1.118235e+00 0.000000e+00 0.000000e+00
1
Step 277000
Ar 1.121012e+00 0.000000e+00 0.000000e+00
1
Step 278000
Ar 1.121709e+00 0.000000e+00 0.000000e+00
1
Step 279000
Ar 1.118287e+00 0.000000e+00 0.000000e+00
1
Step 280000
Ar 1.124717e+00 0.000000e+00 0.000000e+00
1
Step 281000
Ar 1.126832e+00 0.000000e+00 0.000000e+00
1
Step 282000
Ar 1.121173e+00 0.000000e+00 0.000000e+00
1
Step 283000
Ar 1.123934e+00 0.000000e+00 0.000000e+00
1
Step 284000
Ar 1.129956e+00 0.000000e+00 0.000000e+00
1
Step 285000
Ar 1.127767e+00 0.000000e+00 0.000000e+00
1
Step 286000
Ar 1.126910e+00 0.000000e+00 0.000000e+00
1
Step 287000
Ar 9.284919e-01 0.000000e+00 0.000000e+00
1
Step 288000
Ar 8.986638e-01 0.000000e+00 0.000000e+00
1
Step 289000
Ar 1.141688e+00 0.000000e+00 0.000000e+00
1
Step 290000
Ar 1.031412e+00 0.000000e+00 0.000000e+00
1
Step 291000
Ar 8.148802e-01 0.000000e+00 0.000000e+00
1
Step 292000
Ar 9.189688e-01 0.000000e+00 0.000000e+00
1
Step 293000
Ar 1.138424e+00 0.000000e+00 0.000000e+00
1
Step 294000
Ar 1.061716e+00 0.000000e+00 0.000000e+00
1
Step 295000
Ar 8.557567e-01 0.000000e+00 0.000000e+00
1
Step 296000
Ar 1.081343e+00 0.000000e+00 0.000000e+00
1
Step 297000
Ar 1.149319e+00 0.000000e+00 0.000000e+00
1
Step 298000
Ar 1.149334e+00 0.000000e+00 0.000000e+00
1
Step 299000
Ar 1.093460e+00 0.000000e+00 0.000000e+00
1
Step 300000
Ar 8.530667e-01 0.000000e+00 0.000000e+00
1
Step 301000
Ar 9.700995e-01 0.000000e+00 0.000000e+00
1
Step 302000
Ar 1.052961e+00 0.000000e+00 0.000000e+00
1
Step 303000
Ar 8.801423e-01 0.000000e+00 0.000000e+00
1
Step 304000
Ar 1.075277e+00 0.000000e+00 0.000000e+00
1
Step 305000
Ar 1.107827e+00 0.000000e+00 0.000000e+00
1
Step 306000
Ar 9.197549e-01 0.000000e+00 0.000000e+00
1
Step 307000
Ar 1.016823e+00 0.000000e+00 0.000000e+00
1
Step 308000
Ar 1.058805e+00 0.000000e+00 0.000000e+00
1
Step 309000
Ar 9.749611e-01 0.000000e+00 0.000000e+00
1
Step 310000
Ar 8.740331e-01 0.000000e+00 0.000000e+00
1
Step 311000
Ar 1.066205e+00 0.000000e+00 0.000000e+00
1
Step 312000
Ar 7.798498e-01 0.000000e+00 0.000000e+00
1
Step 313000
Ar 1.141058e+00 0.000000e+00 0.000000e+00
1
Step 314000
Ar 1.204045e+00 0.000000e+00 0.000000e+00
1
Step 315000
Ar 1.060603e+00 0.000000e+00 0.000000e+00
1
Step 316000
Ar 8.260202e-01 0.000000e+00 0.000000e+00
1
Step 317000
Ar 9.947184e-01 0.000000e+00 0.000000e+00
1
Step 318000
Ar 9.283349e-01 0.000000e+00 0.000000e+00
1
Step 319000
Ar 9.549874e-01 0.000000e+00 0.000000e+00
1
Step 320000
Ar 9.334972e-01 0.000000e+00 0.000000e+00
1
Step 321000
Ar 9.193387e-01 0.000000e+00 0.000000e+00
1
Step 322000
Ar 1.133319e+00 0.000000e+00 0.000000e+00
1
Step 323000
Ar 8.797480e-01 0.000000e+00 0.000000e+00
1
Step 324000
Ar 9.257515e-01 0.000000e+00 0.000000e+00
1
Step 325000
Ar 8.200146e-01 0.000000e+00 0.000000e+00
1
Step 326000
Ar 9.643721e-01 0.000000e+00 0.000000e+00
1
Step 327000
Ar 9.948440e-01 0.000000e+00 0.000000e+00
1
Step 328000
Ar 8.600903e-01 0.000000e+00 0.000000e+00
1
Step 329000
Ar 1.033572e+00 0.000000e+00 0.000000e+00
1
Step 330000
Ar 8.929710e-01 0.000000e+00 0.000000e+00
1
Step 331000
Ar 8.867671e-01 0.000000e+00 0.000000e+00
1
Step 332000
Ar 8.861885e-01 0.000000e+00 0.000000e+00
1
Step 333000
Ar 8.837159e-01 0.000000e+00 0.000000e+00
1
Step 334000
Ar 1.140616e+00 0.000000e+00 0.000000e+00
1
Step 335000
Ar 1.202862e+00 0.000000e+00 0.000000e+00
1
Step 336000
Ar 8.868107e-01 0.000000e+00 0.000000e+00
1
Step 337000
Ar 9.303104e-01 0.000000e+00 0.000000e+00
1
Step 338000
Ar 1.112845e+00 0.000000e+00 0.000000e+00
1
Step 339000
Ar 8.070935e-01 0.000000e+00 0.000000e+00
1
Step 340000
Ar 1.182202e+00 0.000000e+00 0.000000e+00
1
Step 341000
Ar 8.897480e-01 0.000000e+00 0.000000e+00
1
Step 342000
Ar 8.828039e-01 0.000000e+00 0.000000e+00
1
Step 343000
Ar 8.918682e-01 0.000000e+00 0.000000e+00
1
Step 344000
Ar 8.911062e-01 0.000000e+00 0.000000e+00
1
Step 345000
Ar 8.879543e-01 0.000000e+00 0.000000e+00
1
Step 346000
Ar 1.045345e+00 0.000000e+00 0.000000e+00
1
Step 347000
Ar 7.725049e-01 0.000000e+00 0.000000e+00
1
Step 348000
Ar 1.236976e+00 0.000000e+00 0.000000e+00
1
Step 349000
Ar 8.924220e-01 0.000000e+00 0.000000e+00
1
Step 350000
Ar 9.654762e-01 0.000000e+00 0.000000e+00
1
Step 351000
Ar 1.098203e+00 0.000000e+00 0.000000e+00
1
Step 352000
Ar 7.171356e-01 0.000000e+00 0.000000e+00
1
Step 353000
Ar 9.917855e-01 0.000000e+00 0.000000e+00
1
Step 354000
Ar 7.142911e-01 0.000000e+00 0.000000e+00
1
Step 355000
Ar 8.818276e-01 0.000000e+00 0.000000e+00
1
Step 356000
Ar 1.143745e+00 0.000000e+00 0.000000e+00
1
Step 357000
Ar 9.129689e-01 0.000000e+00 0.000000e+00
1
Step 358000
Ar 7.845794e-01 0.000000e+00 0.000000e+00
1
Step 359000
Ar 9.414283e-01 0.000000e+00 0.000000e+00
1
Step 360000
Ar 9.320067e-01 0.000000e+00 0.000000e+00
1
Step 361000
Ar 8.650007e-01 0.000000e+00 0.000000e+00
1
Step 362000
Ar 9.706514e-01 0.000000e+00 0.000000e+00
1
Step 363000
Ar 9.886679e-01 0.000000e+00 0.000000e+00
1
Step 364000
Ar 1.255823e+00 0.000000e+00 0.000000e+00
1
Step 365000
Ar 8.296261e-01 0.000000e+00 0.000000e+00
1
Step 366000
Ar 1.127596e+00 0.000000e+00 0.000000e+00
1
Step 367000
Ar 9.832627e-01 0.000000e+00 0.000000e+00
1
Step 368000
Ar 1.015331e+00 0.000000e+00 0.000000e+00
1
Step 369000
Ar 1.045171e+00 0.000000e+00 0.000000e+00
1
Step 370000
Ar 1.164331e+00 0.000000e+00 0.000000e+00
1
Step 371000
Ar 1.152009e+00 0.000000e+00 0.000000e+00
1
Step 372000
Ar 1.148729e+00 0.000000e+00 0.000000e+00
1
Step 373000
Ar 1.149810e+00 0.000000e+00 0.000000e+00
1
Step 374000
Ar 1.147994e+00 0.000000e+00 0.000000e+00
1
Step 375000
Ar 1.146654e+00 0.000000e+00 0.000000e+00
1
Step 376000
Ar 1.146345e+00 0.000000e+00 0.000000e+00
1
Step 377000
Ar 1.147920e+00 0.000000e+00 0.000000e+00
1
Step 378000
Ar 1.149087e+00 0.000000e+00 0.000000e+00
1
Step 379000
Ar 1.150411e+00 0.000000e+00 0.000000e+00
1
Step 380000
Ar 1.153040e+00 0.000000e+00 0.000000e+00
1
Step 381000
Ar 7.314516e-01 0.000000e+00 0.000000e+00
1
Step 382000
Ar 1.052008e+00 0.000000e+00 0.000000e+00
1
Step 383000
Ar 7.612203e-01 0.000000e+00 0.000000e+00
1
Step 384000
Ar 9.100727e-01 0.000000e+00 0.000000e+00
1
Step 385000
Ar 6.840244e-01 0.000000e+00 0.000000e+00
1
Step 386000
Ar 9.169419e-01 0.000000e+00 0.000000e+00
1
Step 387000
Ar 7.480128e-01 0.000000e+00 0.000000e+00
1
Step 388000
Ar 6.784922e-01 0.000000e+00 0.000000e+00
1
Step 389000
Ar 8.079125e-01 0.000000e+00 0.000000e+00
1
Step 390000
Ar 8.832877e-01 0.000000e+00 0.000000e+00
1
Step 391000
Ar 1.190020e+00 0.000000e+00 0.000000e+00
1
Step 392000
Ar 1.108026e+00 0.000000e+00 0.000000e+00
1
Step 393000
Ar 1.166310e+00 0.000000e+00 0.000000e+00
1
Step 394000
Ar 1.230572e+00 0.000000e+00 0.000000e+00
1
Step 395000
Ar 1.042729e+00 0.000000e+00 0.000000e+00
1
Step 396000
Ar 1.137856e+00 0.000000e+00 0.000000e+00
1
Step 397000
Ar 1.215128e+00 0.000000e+00 0.000000e+00
1
Step 398000
Ar 7.237888e-01 0.000000e+00 0.000000e+00
1
Step 399000
Ar 8.351555e-01 0.000000e+00 0.000000e+00
1
Step 400000
Ar 8.387687e-01 0.000000e+00 0.000000e+00
1
Step 401000
Ar 9.161327e-01 0.000000e+00 0.000000e+00
1
Step 402000
Ar 8.868128e-01 0.000000e+00 0.000000e+00
1
Step 403000
Ar 8.812615e-01 0.000000e+00 0.000000e+00
1
Step 404000
Ar 8.191940e-01 0.000000e+00 0.000000e+00
1
Step 405000
Ar 9.137566e-01 0.000000e+00 0.000000e+00
1
Step 406000
Ar 7.860062e-01 0.000000e+00 0.000000e+00
1
Step 407000
Ar 1.058274e+00 0.000000e+00 0.000000e+00
1
Step 408000
Ar 1.056995e+00 0.000000e+00 0.000000e+00
1
Step 409000
Ar 1.045830e+00 0.000000e+00 0.000000e+00
1
Step 410000
Ar 1.024152e+00 0.000000e+00 0.000000e+00
1
Step 411000
Ar 1.063265e+00 0.000000e+00 0.000000e+00
1
Step 412000
Ar 7.470528e-01 0.000000e+00 0.000000e+00
1
Step 413000
Ar 7.223316e-01 0.000000e+00 0.000000e+00
1
Step 414000
Ar 1.175867e+00 0.000000e+00 0.000000e+00
1
Step 415000
Ar 9.603838e-01 0.000000e+00 0.000000e+00
1
Step 416000
Ar 6.992767e-01 0.000000e+00 0.000000e+00
1
Step 417000
Ar 1.002585e+00 0.000000e+00 0.000000e+00
1
Step 418000
Ar 8.446243e-01 0.000000e+00 0.000000e+00
1
Step 419000
Ar 1.036095e+00 0.000000e+00 0.000000e+00
1
Step 420000
Ar 1.142317e+00 0.000000e+00 0.000000e+00
1
Step 421000
Ar 8.570071e-01 0.000000e+00 0.000000e+00
1
Step 422000
Ar 9.274141e-01 0.000000e+00 0.000000e+00
1
Step 423000
Ar 8.378175e-01 0.000000e+00 0.000000e+00
1
Step 424000
Ar 7.992786e-01 0.000000e+00 0.000000e+00
1
Step 425000
Ar 1.010163e+00 0.000000e+00 0.000000e+00
1
Step 426000
Ar 1.146241e+00 0.000000e+00 0.000000e+00
1
Step 427000
Ar 8.413513e-01 0.000000e+00 0.000000e+00
1
Step 428000
Ar 8.390052e-01 0.000000e+00 0.000000e+00
1
Step 429000
Ar 8.408355e-01 0.000000e+00 0.000000e+00
1
Step 430000
Ar 8.355910e-01 0.000000e+00 0.000000e+00
1
Step 431000
Ar 8.442776e-01 0.000000e+00 0.000000e+00
1
Step 432000
Ar 9.039216e-01 0.000000e+00 0.000000e+00
1
Step 433000
Ar 1.146687e+00 0.000000e+00 0.000000e+00
1
Step 434000
Ar 9.872174e-01 0.000000e+00 0.000000e+00
1
Step 435000
Ar 1.176275e+00 0.000000e+00 0.000000e+00
1
Step 436000
Ar 1.095291e+00 0.000000e+00 0.000000e+00
1
Step 437000
Ar 1.135884e+00 0.000000e+00 0.000000e+00
1
Step 438000
Ar 1.237953e+00 0.000000e+00 0.000000e+00
1
Step 439000
Ar 7.423114e-01 0.000000e+00 0.000000e+00
1
Step 440000
Ar 6.749450e-01 0.000000e+00 0.000000e+00
1
Step 441000
Ar 1.152750e+00 0.000000e+00 0.000000e+00
1
Step 442000
Ar 8.573237e-01 0.000000e+00 0.000000e+00
1
Step 443000
Ar 1.362294e+00 0.000000e+00 0.000000e+00
1
Step 444000
Ar -9.848056e-01 0.000000e+00 0.000000e+00
1
Step 445000
Ar -9.781177e-01 0.000000e+00 0.000000e+00
1
Step 446000
Ar -9.803106e-01 0.000000e+00 0.000000e+00
1
Step 447000
Ar -9.839805e-01 0.000000e+00 0.000000e+00
1
Step 448000
Ar -1.015692e+00 0.000000e+00 0.000000e+00
1
Step 449000
Ar -9.717417e-01 0.000000e+00 0.000000e+00
1
Step 450000
Ar -9.619320e-01 0.000000e+00 0.000000e+00
1
Step 451000
Ar -9.678578e-01 0.000000e+00 0.000000e+00
1
Step 452000
Ar -9.667731e-01 0.000000e+00 0.000000e+00
1
Step 453000
Ar -9.688714e-01 0.000000e+00 0.000000e+00
1
Step 454000
Ar -9.702768e-01 0.000000e+00 0.000000e+00
1
Step 455000
Ar -1.033730e+00 0.000000e+00 0.000000e+00
1
Step 456000
Ar -1.032008e+00 0.000000e+00 0.000000e+00
1
Step 457000
Ar -1.039015e+00 0.000000e+00 0.000000e+00
1
Step 458000
Ar -9.743011e-01 0.000000e+00 0.000000e+00
1
Step 459000
Ar -1.092820e+00 0.000000e+00 0.000000e+00
1
Step 460000
Ar -9.514374e-01 0.000000e+00 0.000000e+00
1
Step 461000
Ar -9.546057e-01 0.000000e+00 0.000000e+00
1
Step 462000
Ar -9.568101e-01 0.000000e+00 0.000000e+00
1
Step 463000
Ar -9.556665e-01 0.000000e+00 0.000000e+00
1
Step 464000
Ar -9.532457e-01 0.000000e+00 0.000000e+00
1
Step 465000
Ar -1.041692e+00 0.000000e+00 0.000000e+00
1
Step 466000
Ar -9.922057e-01 0.000000e+00 0.000000e+00
1
Step 467000
Ar -9.466964e-01 0.000000e+00 0.000000e+00
1
Step 468000
Ar -9.484140e-01 0.000000e+00 0.000000e+00
1
Step 469000
Ar -9.896333e-01 0.000000e+00 0.000000e+00
1
Step 470000
Ar -9.704914e-01 0.000000e+00 0.000000e+00
1
Step 471000
Ar -1.057726e+00 0.000000e+00 0.000000e+00
1
Step 472000
Ar -1.048003e+00 0.000000e+00 0.000000e+00
1
Step 473000
Ar -1.030810e+00 0.000000e+00 0.000000e+00
1
Step 474000
Ar -9.319567e-01 0.000000e+00 0.000000e+00
1
Step 475000
Ar -1.026969e+00 0.000000e+00 0.000000e+00
1
Step 476000
Ar -1.026446e+00 0.000000e+00 0.000000e+00
1
Step 477000
Ar -8.550535e-01 0.000000e+00 0.000000e+00
1
Step 478000
Ar -8.702742e-01 0.000000e+00 0.000000e+00
1
Step 479000
Ar -9.203035e-01 0.000000e+00 0.000000e+00
1
Step 480000
Ar -9.050055e-01 0.000000e+00 0.000000e+00
1
Step 481000
Ar -9.065342e-01 0.000000e+00 0.000000e+00
1
Step 482000
Ar -9.400820e-01 0.000000e+00 0.000000e+00
1
Step 483000
Ar -9.422318e-01 0.000000e+00 0.000000e+00
1
Step 484000
Ar -9.435876e-01 0.000000e+00 0.000000e+00
1
Step 485000
Ar -9.396802e-01 0.000000e+00 0.000000e+00
1
Step 486000
Ar -1.003434e+00 0.000000e+00 0.000000e+00
1
Step 487000
Ar -9.425680e-01 0.000000e+00 0.000000e+00
1
Step 488000
Ar -9.408964e-01 0.000000e+00 0.000000e+00
1
Step 489000
Ar -9.921928e-01 0.000000e+00 0.000000e+00
1
Step 490000
Ar -1.003593e+00 0.000000e+00 0.000000e+00
1
Step 491000
Ar -1.071152e+00 0.000000e+00 0.000000e+00
1
Step 492000
Ar -1.005988e+00 0.000000e+00 0.000000e+00
1
Step 493000
Ar -1.073044e+00 0.000000e+00 0.000000e+00
1
Step 494000
Ar -1.006628e+00 0.000000e+00 0.000000e+00
1
Step 495000
Ar -1.006046e+00 0.000000e+00 0.000000e+00
1
Step 496000
Ar -1.062148e+00 0.000000e+00 0.000000e+00
1
Step 497000
Ar -9.777993e-01 0.000000e+00 0.000000e+00
1
Step 498000
Ar -1.086694e+00 0.000000e+00 0.000000e+00
1
Step 499000
Ar -1.042117e+00 0.000000e+00 0.000000e+00
1
Step 500000
Ar -9.659473e-01 0.000000e+00 0.000000e+00
1
Step 501000
Ar -1.064951e+00 0.000000e+00 0.000000e+00
1
Step 502000
Ar -1.050571e+00 0.000000e+00 0.000000e+00
1
Step 503000
Ar -1.047784e+00 0.000000e+00 0.000000e+00
1
Step 504000
Ar -1.054396e+00 0.000000e+00 0.000000e+00
1
Step 505000
Ar -1.048187e+00 0.000000e+00 0.000000e+00
1
Step 506000
Ar -9.225786e-01 0.000000e+00 0.000000e+00
1
Step 507000
Ar -9.340119e-01 0.000000e+00 0.000000e+00
1
Step 508000
Ar -9.291325e-01 0.000000e+00 0.000000e+00
1
Step 509000
Ar -9.339576e-01 0.000000e+00 0.000000e+00
1
Step 510000
Ar -9.412293e-01 0.000000e+00 0.000000e+00
1
Step 511000
Ar -9.232515e-01 0.000000e+00 0.000000e+00
1
Step 512000
Ar -9.368044e-01 0.000000e+00 0.000000e+00
1
Step 513000
Ar -9.367633e-01 0.000000e+00 0.000000e+00
1
Step 514000
Ar -9.387549e-01 0.000000e+00 0.000000e+00
1
Step 515000
Ar -9.375947e-01 0.000000e+00 0.000000e+00
1
Step 516000
Ar -9.235307e-01 0.000000e+00 0.000000e+00
1
Step 517000
Ar -9.345110e-01 0.000000e+00 0.000000e+00
1
Step 518000
Ar -1.069397e+00 0.000000e+00 0.000000e+00
1
Step 519000
Ar -1.065449e+00 0.000000e+00 0.000000e+00
1
Step 520000
Ar -1.058328e+00 0.000000e+00 0.000000e+00
1
Step 521000
Ar -1.085801e+00 0.000000e+00 0.000000e+00
1
Step 522000
Ar -1.057552e+00 0.000000e+00 0.000000e+00
1
Step 523000
Ar -1.065087e+00 0.000000e+00 0.000000e+00
1
Step 524000
Ar -1.069300e+00 0.000000e+00 0.000000e+00
1
Step 525000
Ar -8.912462e-01 0.000000e+00 0.000000e+00
1
Step 526000
Ar -9.371213e-01 0.000000e+00 0.000000e+00
1
Step 527000
Ar -1.092160e+00 0.000000e+00 0.000000e+00
1
Step 528000
Ar -1.087124e+00 0.000000e+00 0.000000e+00
1
Step 529000
Ar -1.086451e+00 0.000000e+00 0.000000e+00
1
Step 530000
Ar -9.062008e-01 0.000000e+00 0.000000e+00
1
Step 531000
Ar -9.018545e-01 0.000000e+00 0.000000e+00
1
Step 532000
Ar -8.933357e-01 0.000000e+00 0.000000e+00
1
Step 533000
Ar -8.977633e-01 0.000000e+00 0.000000e+00
1
Step 534000
Ar -1.002466e+00 0.000000e+00 0.000000e+00
1
Step 535000
Ar -8.067242e-01 0.000000e+00 0.000000e+00
1
Step 536000
Ar -1.013068e+00 0.000000e+00 0.000000e+00
1
Step 537000
Ar -7.599651e-01 0.000000e+00 0.000000e+00
1
Step 538000
Ar -1.089590e+00 0.000000e+00 0.000000e+00
1
Step 539000
Ar -1.087617e+00 0.000000e+00 0.000000e+00
1
Step 540000
Ar -1.085001e+00 0.000000e+00 0.000000e+00
1
Step 541000
Ar -1.088041e+00 0.000000e+00 0.000000e+00
1
Step 542000
Ar -1.087630e+00 0.000000e+00 0.000000e+00
1
Step 543000
Ar -1.086054e+00 0.000000e+00 0.000000e+00
1
Step 544000
Ar -1.084821e+00 0.000000e+00 0.000000e+00
1
Step 545000
Ar -1.091376e+00 0.000000e+00 0.000000e+00
1
Step 546000
Ar -1.088762e+00 0.000000e+00 0.000000e+00
1
Step 547000
Ar -1.086680e+00 0.000000e+00 0.000000e+00
1
Step 548000
Ar -1.087901e+00 0.000000e+00 0.000000e+00
1
Step 549000
Ar -1.080976e+00 0.000000e+00 0.000000e+00
1
Step 550000
Ar -1.087471e+00 0.000000e+00 0.000000e+00
1
Step 551000
Ar -1.082577e+00 0.000000e+00 0.000000e+00
1
Step 552000
Ar -1.087318e+00 0.000000e+00 0.000000e+00
1
Step 553000
Ar -1.096852e+00 0.000000e+00 0.000000e+00
1
Step 554000
Ar -1.090993e+00 0.000000e+00 0.000000e+00
1
Step 555000
Ar -8.712085e-01 0.000000e+00 0.000000e+00
1
Step 556000
Ar -1.062634e+00 0.000000e+00 0.000000e+00
1
Step 557000
Ar -9.540120e-01 0.000000e+00 0.000000e+00
1
Step 558000
Ar -9.632899e-01 0.000000e+00 0.000000e+00
1
Step 559000
Ar -1.005111e+00 0.000000e+00 0.000000e+00
1
Step 560000
Ar -1.005684e+00 0.000000e+00 0.000000e+00
1
Step 561000
Ar -1.004386e+00 0.000000e+00 0.000000e+00
1
Step 562000
Ar -9.249602e-01 0.000000e+00 0.000000e+00
1
Step 563000
Ar -1.133860e+00 0.000000e+00 0.000000e+00
1
Step 564000
Ar -1.127395e+00 0.000000e+00 0.000000e+00
1
Step 565000
Ar -1.006971e+00 0.000000e+00 0.000000e+00
1
Step 566000
Ar -1.004516e+00 0.000000e+00 0.000000e+00
1
Step 567000
Ar -1.006211e+00 0.000000e+00 0.000000e+00
1
Step 568000
Ar -8.950454e-01 0.000000e+00 0.000000e+00
1
Step 569000
Ar -1.000763e+00 0.000000e+00 0.000000e+00
1
Step 570000
Ar -1.208357e+00 0.000000e+00 0.000000e+00
1
Step 571000
Ar -9.741248e-01 0.000000e+00 0.000000e+00
1
Step 572000
Ar -1.026969e+00 0.000000e+00 0.000000e+00
1
Step 573000
Ar -9.012673e-01 0.000000e+00 0.000000e+00
1
Step 574000
Ar -1.004259e+00 0.000000e+00 0.000000e+00
1
Step 575000
Ar -9.799858e-01 0.000000e+00 0.000000e+00
1
Step 576000
Ar -9.384752e-01 0.000000e+00 0.000000e+00
1
Step 577000
Ar -1.007036e+00 0.000000e+00 0.000000e+00
1
Step 578000
Ar -1.010963e+00 0.000000e+00 0.000000e+00
1
Step 579000
Ar -1.061166e+00 0.000000e+00 0.000000e+00
1
Step 580000
Ar -1.005559e+00 0.000000e+00 0.000000e+00
1
Step 581000
Ar -1.008773e+00 0.000000e+00 0.000000e+00
1
Step 582000
Ar -9.159280e-01 0.000000e+00 0.000000e+00
1
Step 583000
Ar -9.000756e-01 0.000000e+00 0.000000e+00
1
Step 584000
Ar -8.892566e-01 0.000000e+00 0.000000e+00
1
Step 585000
Ar -8.975798e-01 0.000000e+00 0.000000e+00
1
Step 586000
Ar -8.906353e-01 0.000000e+00 0.000000e+00
1
Step 587000
Ar -1.026050e+00 0.000000e+00 0.000000e+00
1
Step 588000
Ar -9.331311e-01 0.000000e+00 0.000000e+00
1
Step 589000
Ar -8.871135e-01 0.000000e+00 0.000000e+00
1
Step 590000
Ar -8.824584e-01 0.000000e+00 0.000000e+00
1
Step 591000
Ar -9.235921e-01 0.000000e+00 0.000000e+00
1
Step 592000
Ar -1.109614e+00 0.000000e+00 0.000000e+00
1
Step 593000
Ar -9.678848e-01 0.000000e+00 0.000000e+00
1
Step 594000
Ar -1.005712e+00 0.000000e+00 0.000000e+00
1
Step 595000
Ar -1.112808e+00 0.000000e+00 0.000000e+00
1
Step 596000
Ar -9.994614e-01 0.000000e+00 0.000000e+00
1
Step 597000
Ar -1.008005e+00 0.000000e+00 0.000000e+00
1
Step 598000
Ar -1.006768e+00 0.000000e+00 0.000000e+00
1
Step 599000
Ar -1.061817e+00 0.000000e+00 0.000000e+00
1
Step 600000
Ar -9.776289e-01 0.000000e+00 0.000000e+00
1
Step 601000
Ar -9.872462e-01 0.000000e+00 0.000000e+00
1
Step 602000
Ar -1.004984e+00 0.000000e+00 0.000000e+00
1
Step 603000
Ar -1.010654e+00 0.000000e+00 0.000000e+00
1
Step 604000
Ar -8.879205e-01 0.000000e+00 0.000000e+00
1
Step 605000
Ar -8.854830e-01 0.000000e+00 0.000000e+00
1
Step 606000
Ar -8.849083e-01 0.000000e+00 0.000000e+00
1
Step 607000
Ar -1.058377e+00 0.000000e+00 0.000000e+00
1
Step 608000
Ar -1.035116e+00 0.000000e+00 0.000000e+00
1
Step 609000
Ar -7.653370e-01 0.000000e+00 0.000000e+00
1
Step 610000
Ar -1.031195e+00 0.000000e+00 0.000000e+00
1
Step 611000
Ar -9.044437e-01 0.000000e+00 0.000000e+00
1
Step 612000
Ar -1.043493e+00 0.000000e+00 0.000000e+00
1
Step 613000
Ar -9.224655e-01 0.000000e+00 0.000000e+00
1
Step 614000
Ar -1.010509e+00 0.000000e+00 0.000000e+00
1
Step 615000
Ar -8.013703e-01 0.000000e+00 0.000000e+00
1
Step 616000
Ar -9.231289e-01 0.000000e+00 0.000000e+00
1
Step 617000
Ar -9.230740e-01 0.000000e+00 0.000000e+00
1
Step 618000
Ar -9.188438e-01 0.000000e+00 0.000000e+00
1
Step 619000
Ar -1.054233e+00 0.000000e+00 0.000000e+00
1
Step 620000
Ar -1.004194e+00 0.000000e+00 0.000000e+00
1
Step 621000
Ar -9.093403e-01 0.000000e+00 0.000000e+00
1
Step 622000
Ar -9.062593e-01 0.000000e+00 0.000000e+00
1
Step 623000
Ar -1.027517e+00 0.000000e+00 0.000000e+00
1
Step 624000
Ar -9.885201e-01 0.000000e+00 0.000000e+00
1
Step 625000
Ar -9.979930e-01 0.000000e+00 0.000000e+00
1
Step 626000
Ar -1.100953e+00 0.000000e+00 0.000000e+00
1
Step 627000
Ar -9.926102e-01 0.000000e+00 0.000000e+00
1
Step 628000
Ar -8.792148e-01 0.000000e+00 0.000000e+00
1
Step 629000
Ar -1.082062e+00 0.000000e+00 0.000000e+00
1
Step 630000
Ar -1.000478e+00 0.000000e+00 0.000000e+00
1
Step 631000
Ar -9.905199e-01 0.000000e+00 0.000000e+00
1
Step 632000
Ar -9.693433e-01 0.000000e+00 0.000000e+00
1
Step 633000
Ar -1.107320e+00 0.000000e+00 0.000000e+00
1
Step 634000
Ar -1.107960e+00 0.000000e+00 0.000000e+00
1
Step 635000
Ar -1.112553e+00 0.000000e+00 0.000000e+00
1
Step 636000
Ar -1.106975e+00 0.000000e+00 0.000000e+00
1
Step 637000
Ar -1.029804e+00 0.000000e+00 0.000000e+00
1
Step 638000
Ar -9.211891e-01 0.000000e+00 0.000000e+00
1
Step 639000
Ar -8.839291e-01 0.000000e+00 0.000000e+00
1
Step 640000
Ar -8.827655e-01 0.000000e+00 0.000000e+00
1
Step 641000
Ar -1.101122e+00 0.000000e+00 0.000000e+00
1
Step 642000
Ar -9.923499e-01 0.000000e+00 0.000000e+00
1
Step 643000
Ar -9.934401e-01 0.000000e+00 0.000000e+00
1
Step 644000
Ar -1.118846e+00 0.000000e+00 0.000000e+00
1
Step 645000
Ar -9.998852e-01 0.000000e+00 0.000000e+00
1
Step 646000
Ar -1.009259e+00 0.000000e+00 0.000000e+00
1
Step 647000
Ar -1.009396e+00 0.000000e+00 0.000000e+00
1
Step 648000
Ar -1.006583e+00 0.000000e+00 0.000000e+00
1
Step 649000
Ar -1.009213e+00 0.000000e+00 0.000000e+00
1
Step 650000
Ar -9.997577e-01 0.000000e+00 0.000000e+00
1
Step 651000
Ar -9.385777e-01 0.000000e+00 0.000000e+00