1
Step 120000
Ar -7.772591e-03 0.000000e+00 0.000000e+00
1
Step 121000
Ar -1.994304e-02 0.000000e+00 0.000000e+00
1
Step 122000
Ar -2.648548e-02 0.000000e+00 0.000000e+00
1
Step 123000
Ar 7.685038e-03 0.000000e+00 0.000000e+00
1
Step 124000
Ar 3.337571e-02 0.000000e+00 0.000000e+00
1
Step 125000
Ar 4.856278e-02 0.000000e+00 0.000000e+00
1
Step 126000
Ar 3.890075e-02 0.000000e+00 0.000000e+00
1
Step 127000
Ar -4.383286e-02 0.000000e+00 0.000000e+00
1
Step 128000
Ar -2.609005e-02 0.000000e+00 0.000000e+00
1
Step 129000
Ar 9.076056e-02 0.000000e+00 0.000000e+00
1
Step 130000
Ar 2.602192e-02 0.000000e+00 0.000000e+00
1
Step 131000
Ar -3.734931e-03 0.000000e+00 0.000000e+00
1
Step 132000
Ar -4.166901e-02 0.000000e+00 0.000000e+00
1
Step 133000
Ar 4.924204e-02 0.000000e+00 0.000000e+00
1
Step 134000
Ar -5.231102e-02 0.000000e+00 0.000000e+00
1
Step 135000
Ar 4.181632e-02 0.000000e+00 0.000000e+00
1
Step 136000
Ar 3.785542e-02 0.000000e+00 0.000000e+00
1
Step 137000
Ar 4.207793e-02 0.000000e+00 0.000000e+00
1
Step 138000
Ar -4.910470e-03 0.000000e+00 0.000000e+00
1
Step 139000
Ar 2.983685e-02 0.000000e+00 0.000000e+00
1
Step 140000
Ar -6.109961e-02 0.000000e+00 0.000000e+00
1
Step 141000
Ar 2.119757e-02 0.000000e+00 0.000000e+00
1
Step 142000
Ar -1.952517e-02 0.000000e+00 0.000000e+00
1
Step 143000
Ar 7.057282e-02 0.000000e+00 0.000000e+00
1
Step 144000
Ar -7.069950e-04 0.000000e+00 0.000000e+00
1
Step 145000
Ar 1.079490e-02 0.000000e+00 0.000000e+00
1
Step 146000
Ar -4.133940e-02 0.000000e+00 0.000000e+00
1
Step 147000
Ar -4.518580e-02 0.000000e+00 0.000000e+00
1
Step 148000
Ar 9.986540e-03 0.000000e+00 0.000000e+00
1
Step 149000
Ar -2.078546e-02 0.000000e+00 0.000000e+00
1
Step 150000
Ar 9.811400e-03 0.000000e+00 0.000000e+00
1
Step 151000
Ar -8.367877e-03 0.000000e+00 0.000000e+00
1
Step 152000
Ar 5.446454e-02 0.000000e+00 0.000000e+00
1
Step 153000
Ar -1.575725e-02 0.000000e+00 0.000000e+00
1
Step 154000
Ar -1.971656e-02 0.000000e+00 0.000000e+00
1
Step 155000
Ar -5.804582e-02 0.000000e+00 0.000000e+00
1
Step 156000
Ar 7.684569e-02 0.000000e+00 0.000000e+00
1
Step 157000
Ar 4.173097e-03 0.000000e+00 0.000000e+00
1
Step 158000
Ar -5.060805e-02 0.000000e+00 0.000000e+00
1
Step 159000
Ar 3.966804e-02 0.000000e+00 0.000000e+00
1
Step 160000
Ar -5.915182e-04 0.000000e+00 0.000000e+00
1
Step 161000
Ar 4.661047e-03 0.000000e+00 0.000000e+00
1
Step 162000
Ar -1.589498e-02 0.000000e+00 0.000000e+00
1
Step 163000
Ar 7.202673e-02 0.000000e+00 0.000000e+00
1
Step 164000
Ar 1.825385e-02 0.000000e+00 0.000000e+00
1
Step 165000
Ar 1.859981e-02 0.000000e+00 0.000000e+00
1
Step 166000
Ar -2.631431e-02 0.000000e+00 0.000000e+00
1
Step 167000
Ar 4.878514e-02 0.000000e+00 0.000000e+00
1
Step 168000
Ar -4.914733e-02 0.000000e+00 0.000000e+00
1
Step 169000
Ar 2.450844e-02 0.000000e+00 0.000000e+00
1
Step 170000
Ar -4.305111e-02 0.000000e+00 0.000000e+00
1
Step 171000
Ar -1.078227e-03 0.000000e+00 0.000000e+00
1
Step 172000
Ar -2.371971e-02 0.000000e+00 0.000000e+00
1
Step 173000
Ar -1.102464e-02 0.000000e+00 0.000000e+00
1
Step 174000
Ar 1.671565e-02 0.000000e+00 0.000000e+00
1
Step 175000
Ar -2.794026e-02 0.000000e+00 0.000000e+00
1
Step 176000
Ar 3.625090e-02 0.000000e+00 0.000000e+00
1
Step 177000
Ar -8.537423e-03 0.000000e+00 0.000000e+00
1
Step 178000
Ar 4.276345e-02 0.000000e+00 0.000000e+00
1
Step 179000
Ar -3.554059e-02 0.000000e+00 0.000000e+00
1
Step 180000
Ar 1.503339e-02 0.000000e+00 0.000000e+00
1
Step 181000
Ar 1.076447e-02 0.000000e+00 0.000000e+00
1
Step 182000
Ar -4.033486e-02 0.000000e+00 0.000000e+00
1
Step 183000
Ar -1.629118e-02 0.000000e+00 0.000000e+00
1
Step 184000
Ar 4.891394e-02 0.000000e+00 0.000000e+00
1
Step 185000
Ar 8.463343e-03 0.000000e+00 0.000000e+00
1
Step 186000
Ar 8.551754e-02 0.000000e+00 0.000000e+00
1
Step 187000
Ar 4.179367e-03 0.000000e+00 0.000000e+00
1
Step 188000
Ar -8.107440e-03 0.000000e+00 0.000000e+00
1
Step 189000
Ar 9.271389e-03 0.000000e+00 0.000000e+00
1
Step 190000
Ar 5.944221e-03 0.000000e+00 0.000000e+00
1
Step 191000
Ar -8.826622e-03 0.000000e+00 0.000000e+00
1
Step 192000
Ar 2.552510e-02 0.000000e+00 0.000000e+00
1
Step 193000
Ar -4.196025e-03 0.000000e+00 0.000000e+00
1
Step 194000
Ar 7.129575e-02 0.000000e+00 0.000000e+00
1
Step 195000
Ar 6.450176e-02 0.000000e+00 0.000000e+00
1
Step 196000
Ar 1.274485e-02 0.000000e+00 0.000000e+00
1
Step 197000
Ar -1.477434e-02 0.000000e+00 0.000000e+00
1
Step 198000
Ar 6.846532e-03 0.000000e+00 0.000000e+00
1
Step 199000
Ar -2.221909e-02 0.000000e+00 0.000000e+00
1
Step 200000
Ar -4.448722e-02 0.000000e+00 0.000000e+00
1
Step 201000
Ar 5.181273e-02 0.000000e+00 0.000000e+00
1
Step 202000
Ar -8.880174e-03 0.000000e+00 0.000000e+00
1
Step 203000
Ar 3.534359e-02 0.000000e+00 0.000000e+00
1
Step 204000
Ar -6.860144e-04 0.000000e+00 0.000000e+00
1
Step 205000
Ar 2.279310e-02 0.000000e+00 0.000000e+00
1
Step 206000
Ar -2.049709e-02 0.000000e+00 0.000000e+00
1
Step 207000
Ar 5.515801e-02 0.000000e+00 0.000000e+00
1
Step 208000
Ar 2.219486e-02 0.000000e+00 0.000000e+00
1
Step 209000
Ar -1.548708e-02 0.000000e+00 0.000000e+00
1
Step 210000
Ar -3.067189e-02 0.000000e+00 0.000000e+00
1
Step 211000
Ar 7.304914e-02 0.000000e+00 0.000000e+00
1
Step 212000
Ar 4.701322e-02 0.000000e+00 0.000000e+00
1
Step 213000
Ar 6.175741e-03 0.000000e+00 0.000000e+00
1
Step 214000
Ar 3.816103e-02 0.000000e+00 0.000000e+00
1
Step 215000
Ar 4.007310e-02 0.000000e+00 0.000000e+00
1
Step 216000
Ar 2.406887e-02 0.000000e+00 0.000000e+00
1
Step 217000
Ar -4.445186e-02 0.000000e+00 0.000000e+00
1
Step 218000
Ar 2.132909e-02 0.000000e+00 0.000000e+00
1
Step 219000
Ar -3.081534e-02 0.000000e+00 0.000000e+00
1
Step 220000
Ar -3.157150e-02 0.000000e+00 0.000000e+00
1
Step 221000
Ar 5.158707e-02 0.000000e+00 0.000000e+00
1
Step 222000
Ar 8.829242e-02 0.000000e+00 0.000000e+00
1
Step 223000
Ar -5.006598e-02 0.000000e+00 0.000000e+00
1
Step 224000
Ar -4.427161e-02 0.000000e+00 0.000000e+00
1
Step 225000
Ar 3.352363e-02 0.000000e+00 0.000000e+00
1
Step 226000
Ar 1.554603e-02 0.000000e+00 0.000000e+00
1
Step 227000
Ar 7.093890e-03 0.000000e+00 0.000000e+00
1
Step 228000
Ar -1.282064e-04 0.000000e+00 0.000000e+00
1
Step 229000
Ar 1.470069e-02 0.000000e+00 0.000000e+00
1
Step 230000
Ar -4.078708e-02 0.000000e+00 0.000000e+00
1
Step 231000
Ar 3.020862e-02 0.000000e+00 0.000000e+00
1
Step 232000
Ar 2.224621e-02 0.000000e+00 0.000000e+00
1
Step 233000
Ar -1.823997e-02 0.000000e+00 0.000000e+00
1
Step 234000
Ar -1.682771e-02 0.000000e+00 0.000000e+00
1
Step 235000
Ar -3.605910e-02 0.000000e+00 0.000000e+00
1
Step 236000
Ar 4.518320e-02 0.000000e+00 0.000000e+00
1
Step 237000
Ar -7.456000e-02 0.000000e+00 0.000000e+00
1
Step 238000
Ar 1.553498e-02 0.000000e+00 0.000000e+00
1
Step 239000
Ar 1.335431e-02 0.000000e+00 0.000000e+00
1
Step 240000
Ar -2.585858e-02 0.000000e+00 0.000000e+00
1
Step 241000
Ar 1.506983e-02 0.000000e+00 0.000000e+00
1
Step 242000
Ar -8.855536e-05 0.000000e+00 0.000000e+00
1
Step 243000
Ar 1.077730e-02 0.000000e+00 0.000000e+00
1
Step 244000
Ar 2.914639e-02 0.000000e+00 0.000000e+00
1
Step 245000
Ar 1.367715e-02 0.000000e+00 0.000000e+00
1
Step 246000
Ar 4.278243e-02 0.000000e+00 0.000000e+00
1
Step 247000
Ar 2.103207e-02 0.000000e+00 0.000000e+00
1
Step 248000
Ar 4.146931e-02 0.000000e+00 0.000000e+00
1
Step 249000
Ar 1.447980e-02 0.000000e+00 0.000000e+00
1
Step 250000
Ar -2.291668e-02 0.000000e+00 0.000000e+00
1
Step 251000
Ar 5.610686e-02 0.000000e+00 0.000000e+00
1
Step 252000
Ar 5.288384e-03 0.000000e+00 0.000000e+00
1
Step 253000
Ar 2.192879e-02 0.000000e+00 0.000000e+00
1
Step 254000
Ar 4.274320e-02 0.000000e+00 0.000000e+00
1
Step 255000
Ar -7.847909e-03 0.000000e+00 0.000000e+00
1
Step 256000
Ar -1.610403e-02 0.000000e+00 0.000000e+00
1
Step 257000
Ar 1.544564e-02 0.000000e+00 0.000000e+00
1
Step 258000
Ar -2.351806e-03 0.000000e+00 0.000000e+00
1
Step 259000
Ar 7.430188e-05 0.000000e+00 0.000000e+00
1
Step 260000
Ar 1.492317e-02 0.000000e+00 0.000000e+00
1
Step 261000
Ar -9.647951e-03 0.000000e+00 0.000000e+00
1
Step 262000
Ar -1.747852e-02 0.000000e+00 0.000000e+00
1
Step 263000
Ar -1.158792e-02 0.000000e+00 0.000000e+00
1
Step 264000
Ar -7.557436e-03 0.000000e+00 0.000000e+00
1
Step 265000
Ar 1.284850e-03 0.000000e+00 0.000000e+00
1
Step 266000
Ar -5.721413e-02 0.000000e+00 0.000000e+00
1
Step 267000
Ar 1.030822e-03 0.000000e+00 0.000000e+00
1
Step 268000
Ar 5.461834e-02 0.000000e+00 0.000000e+00
1
Step 269000
Ar 3.840820e-02 0.000000e+00 0.000000e+00
1
Step 270000
Ar 5.572551e-04 0.000000e+00 0.000000e+00
1
Step 271000
Ar 4.221340e-03 0.000000e+00 0.000000e+00
1
Step 272000
Ar 2.313896e-02 0.000000e+00 0.000000e+00
1
Step 273000
Ar 4.336993e-02 0.000000e+00 0.000000e+00
1
Step 274000
Ar 1.334263e-02 0.000000e+00 0.000000e+00
1
Step 275000
Ar 9.800084e-03 0.000000e+00 0.000000e+00
1
Step 276000
Ar 1.696895e-02 0.000000e+00 0.000000e+00
1
Step 277000
Ar 8.048611e-02 0.000000e+00 0.000000e+00
1
Step 278000
Ar -1.343392e-02 0.000000e+00 0.000000e+00
1
Step 279000
Ar -5.176759e-02 0.000000e+00 0.000000e+00
1
Step 280000
Ar -1.640738e-02 0.000000e+00 0.000000e+00
1
Step 281000
Ar 2.769714e-02 0.000000e+00 0.000000e+00
1
Step 282000
Ar -2.775787e-03 0.000000e+00 0.000000e+00
1
Step 283000
Ar -1.411369e-03 0.000000e+00 0.000000e+00
1
Step 284000
Ar 1.319058e-02 0.000000e+00 0.000000e+00
1
Step 285000
Ar -1.364720e-02 0.000000e+00 0.000000e+00
1
Step 286000
Ar 3.002482e-03 0.000000e+00 0.000000e+00
1
Step 287000
Ar 1.188170e-02 0.000000e+00 0.000000e+00
1
Step 288000
Ar -9.199373e-03 0.000000e+00 0.000000e+00
1
Step 289000
Ar -5.108956e-02 0.000000e+00 0.000000e+00
1
Step 290000
Ar -2.272194e-04 0.000000e+00 0.000000e+00
1
Step 291000
Ar 3.276133e-02 0.000000e+00 0.000000e+00
1
Step 292000
Ar -3.379729e-02 0.000000e+00 0.000000e+00
1
Step 293000
Ar -2.541950e-02 0.000000e+00 0.000000e+00
1
Step 294000
Ar 1.788706e-02 0.000000e+00 0.000000e+00
1
Step 295000
Ar -1.112891e-02 0.000000e+00 0.000000e+00
1
Step 296000
Ar 9.248986e-03 0.000000e+00 0.000000e+00
1
Step 297000
Ar 2.392568e-02 0.000000e+00 0.000000e+00
1
Step 298000
Ar 1.951397e-02 0.000000e+00 0.000000e+00
1
Step 299000
Ar -3.638356e-02 0.000000e+00 0.000000e+00
1
Step 300000
Ar -2.885749e-02 0.000000e+00 0.000000e+00
1
Step 301000
Ar -5.059045e-02 0.000000e+00 0.000000e+00
1
Step 302000
Ar 5.992923e-02 0.000000e+00 0.000000e+00
1
Step 303000
Ar 1.013697e-02 0.000000e+00 0.000000e+00
1
Step 304000
Ar 3.479098e-02 0.000000e+00 0.000000e+00
1
Step 305000
Ar -1.637501e-03 0.000000e+00 0.000000e+00
1
Step 306000
Ar -7.894579e-03 0.000000e+00 0.000000e+00
1
Step 307000
Ar -3.820986e-02 0.000000e+00 0.000000e+00
1
Step 308000
Ar -3.389530e-02 0.000000e+00 0.000000e+00
1
Step 309000
Ar -5.826015e-03 0.000000e+00 0.000000e+00
1
Step 310000
Ar -3.173056e-02 0.000000e+00 0.000000e+00
1
Step 311000
Ar -9.381567e-03 0.000000e+00 0.000000e+00
1
Step 312000
Ar -5.290886e-02 0.000000e+00 0.000000e+00
1
Step 313000
Ar -1.299475e-02 0.000000e+00 0.000000e+00
1
Step 314000
Ar -1.847974e-02 0.000000e+00 0.000000e+00
1
Step 315000
Ar -5.712023e-02 0.000000e+00 0.000000e+00
1
Step 316000
Ar -1.049429e-02 0.000000e+00 0.000000e+00
1
Step 317000
Ar 3.370656e-03 0.000000e+00 0.000000e+00
1
Step 318000
Ar -7.474951e-03 0.000000e+00 0.000000e+00
1
Step 319000
Ar -5.827247e-03 0.000000e+00 0.000000e+00
1
Step 320000
Ar 2.914342e-02 0.000000e+00 0.000000e+00
1
Step 321000
Ar 2.363823e-02 0.000000e+00 0.000000e+00
1
Step 322000
Ar -6.709512e-03 0.000000e+00 0.000000e+00
1
Step 323000
Ar 9.271877e-03 0.000000e+00 0.000000e+00
1
Step 324000
Ar -1.833796e-02 0.000000e+00 0.000000e+00
1
Step 325000
Ar -1.677840e-02 0.000000e+00 0.000000e+00
1
Step 326000
Ar -3.650712e-02 0.000000e+00 0.000000e+00
1
Step 327000
Ar 7.437715e-02 0.000000e+00 0.000000e+00
1
Step 328000
Ar -4.862875e-02 0.000000e+00 0.000000e+00
1
Step 329000
Ar 4.607768e-02 0.000000e+00 0.000000e+00
1
Step 330000
Ar -8.589984e-03 0.000000e+00 0.000000e+00
1
Step 331000
Ar -6.137481e-03 0.000000e+00 0.000000e+00
1
Step 332000
Ar -2.064343e-02 0.000000e+00 0.000000e+00
1
Step 333000
Ar 5.122630e-03 0.000000e+00 0.000000e+00
1
Step 334000
Ar -5.023184e-04 0.000000e+00 0.000000e+00
1
Step 335000
Ar -5.877572e-02 0.000000e+00 0.000000e+00
1
Step 336000
Ar -3.060544e-02 0.000000e+00 0.000000e+00
1
Step 337000
Ar -4.515692e-02 0.000000e+00 0.000000e+00
1
Step 338000
Ar 1.956938e-02 0.000000e+00 0.000000e+00
1
Step 339000
Ar -2.116447e-02 0.000000e+00 0.000000e+00
1
Step 340000
Ar 1.620557e-02 0.000000e+00 0.000000e+00
1
Step 341000
Ar 3.135817e-02 0.000000e+00 0.000000e+00
1
Step 342000
Ar -1.619332e-02 0.000000e+00 0.000000e+00
1
Step 343000
Ar 6.769052e-03 0.000000e+00 0.000000e+00
1
Step 344000
Ar -6.971044e-03 0.000000e+00 0.000000e+00
1
Step 345000
Ar -7.555386e-03 0.000000e+00 0.000000e+00
1
Step 346000
Ar -2.525619e-02 0.000000e+00 0.000000e+00
1
Step 347000
Ar -3.350424e-02 0.000000e+00 0.000000e+00
1
Step 348000
Ar -1.600764e-02 0.000000e+00 0.000000e+00
1
Step 349000
Ar 9.087705e-03 0.000000e+00 0.000000e+00
1
Step 350000
Ar -4.354480e-02 0.000000e+00 0.000000e+00
1
Step 351000
Ar 7.552815e-03 0.000000e+00 0.000000e+00
1
Step 352000
Ar -1.286576e-03 0.000000e+00 0.000000e+00
1
Step 353000
Ar -4.756720e-02 0.000000e+00 0.000000e+00
1
Step 354000
Ar 6.751327e-03 0.000000e+00 0.000000e+00
1
Step 355000
Ar 3.377157e-03 0.000000e+00 0.000000e+00
1
Step 356000
Ar 2.532098e-03 0.000000e+00 0.000000e+00
1
Step 357000
Ar 1.144302e-02 0.000000e+00 0.000000e+00
1
Step 358000
Ar -4.566958e-03 0.000000e+00 0.000000e+00
1
Step 359000
Ar -4.877722e-02 0.000000e+00 0.000000e+00
1
Step 360000
Ar -2.078148e-02 0.000000e+00 0.000000e+00
1
Step 361000
Ar 2.497548e-02 0.000000e+00 0.000000e+00
1
Step 362000
Ar -4.131956e-02 0.000000e+00 0.000000e+00
1
Step 363000
Ar -3.489802e-02 0.000000e+00 0.000000e+00
1
Step 364000
Ar 5.115152e-02 0.000000e+00 0.000000e+00
1
Step 365000
Ar 2.509938e-02 0.000000e+00 0.000000e+00
1
Step 366000
Ar -3.850672e-02 0.000000e+00 0.000000e+00
1
Step 367000
Ar -3.970656e-03 0.000000e+00 0.000000e+00
1
Step 368000
Ar -1.994405e-02 0.000000e+00 0.000000e+00
1
Step 369000
Ar 3.467422e-02 0.000000e+00 0.000000e+00
1
Step 370000
Ar 3.100796e-02 0.000000e+00 0.000000e+00
1
Step 371000
Ar -5.779601e-03 0.000000e+00 0.000000e+00
1
Step 372000
Ar 4.341535e-02 0.000000e+00 0.000000e+00
1
Step 373000
Ar 3.461931e-02 0.000000e+00 0.000000e+00
1
Step 374000
Ar 1.134249e-02 0.000000e+00 0.000000e+00
1
Step 375000
Ar -3.601225e-02 0.000000e+00 0.000000e+00
1
Step 376000
Ar -9.050225e-03 0.000000e+00 0.000000e+00
1
Step 377000
Ar -4.309600e-02 0.000000e+00 0.000000e+00
1
Step 378000
Ar -5.225740e-02 0.000000e+00 0.000000e+00
1
Step 379000
Ar 6.130571e-02 0.000000e+00 0.000000e+00
1
Step 380000
Ar -2.707064e-02 0.000000e+00 0.000000e+00
1
Step 381000
Ar 2.829165e-02 0.000000e+00 0.000000e+00
1
Step 382000
Ar -5.236384e-03 0.000000e+00 0.000000e+00
1
Step 383000
Ar -3.247300e-03 0.000000e+00 0.000000e+00
1
Step 384000
Ar 6.878171e-03 0.000000e+00 0.000000e+00
1
Step 385000
Ar -9.499398e-03 0.000000e+00 0.000000e+00
1
Step 386000
Ar 4.283186e-02 0.000000e+00 0.000000e+00
1
Step 387000
Ar -3.001155e-02 0.000000e+00 0.000000e+00
1
Step 388000
Ar 2.496622e-02 0.000000e+00 0.000000e+00
1
Step 389000
Ar -6.608284e-03 0.000000e+00 0.000000e+00
1
Step 390000
Ar -1.310341e-02 0.000000e+00 0.000000e+00
1
Step 391000
Ar -4.743282e-02 0.000000e+00 0.000000e+00
1
Step 392000
Ar -2.898450e-02 0.000000e+00 0.000000e+00
1
Step 393000
Ar 6.582130e-03 0.000000e+00 0.000000e+00
1
Step 394000
Ar 3.327984e-03 0.000000e+00 0.000000e+00
1
Step 395000
Ar 4.075773e-02 0.000000e+00 0.000000e+00
1
Step 396000
Ar 5.331612e-04 0.000000e+00 0.000000e+00
1
Step 397000
Ar 5.990376e-02 0.000000e+00 0.000000e+00
1
Step 398000
Ar 7.575813e-04 0.000000e+00 0.000000e+00
1
Step 399000
Ar 2.729829e-02 0.000000e+00 0.000000e+00
1
Step 400000
Ar 7.984509e-02 0.000000e+00 0.000000e+00
1
Step 401000
Ar -9.849471e-03 0.000000e+00 0.000000e+00
1
Step 402000
Ar -3.735095e-02 0.000000e+00 0.000000e+00
1
Step 403000
Ar -8.924458e-03 0.000000e+00 0.000000e+00
1
Step 404000
Ar -4.486402e-02 0.000000e+00 0.000000e+00
1
Step 405000
Ar 1.065507e-01 0.000000e+00 0.000000e+00
1
Step 406000
Ar -2.394385e-02 0.000000e+00 0.000000e+00
1
Step 407000
Ar 2.019363e-02 0.000000e+00 0.000000e+00
1
Step 408000
Ar 7.777555e-02 0.000000e+00 0.000000e+00
1
Step 409000
Ar -1.036984e-02 0.000000e+00 0.000000e+00
1
Step 410000
Ar -5.434782e-03 0.000000e+00 0.000000e+00
1
Step 411000
Ar -1.647136e-02 0.000000e+00 0.000000e+00
1
Step 412000
Ar -4.743929e-03 0.000000e+00 0.000000e+00
1
Step 413000
Ar 1.520679e-02 0.000000e+00 0.000000e+00
1
Step 414000
Ar 7.277622e-03 0.000000e+00 0.000000e+00
1
Step 415000
Ar 7.030169e-04 0.000000e+00 0.000000e+00
1
Step 416000
Ar 2.022944e-02 0.000000e+00 0.000000e+00
1
Step 417000
Ar -2.051421e-02 0.000000e+00 0.000000e+00
1
Step 418000
Ar 4.718629e-03 0.000000e+00 0.000000e+00
1
Step 419000
Ar 7.364448e-04 0.000000e+00 0.000000e+00
1
Step 420000
Ar -1.785737e-02 0.000000e+00 0.000000e+00
1
Step 421000
Ar 2.110324e-02 0.000000e+00 0.000000e+00
1
Step 422000
Ar -1.299085e-02 0.000000e+00 0.000000e+00
1
Step 423000
Ar -3.588590e-02 0.000000e+00 0.000000e+00
1
Step 424000
Ar -6.502472e-03 0.000000e+00 0.000000e+00
1
Step 425000
Ar 8.919936e-03 0.000000e+00 0.000000e+00
1
Step 426000
Ar -2.046718e-02 0.000000e+00 0.000000e+00
1
Step 427000
Ar 1.894020e-03 0.000000e+00 0.000000e+00
1
Step 428000
Ar -3.865742e-03 0.000000e+00 0.000000e+00
1
Step 429000
Ar 8.513176e-03 0.000000e+00 0.000000e+00
1
Step 430000
Ar 1.325843e-02 0.000000e+00 0.000000e+00
1
Step 431000
Ar 5.173379e-03 0.000000e+00 0.000000e+00
1
Step 432000
Ar 3.254174e-02 0.000000e+00 0.000000e+00
1
Step 433000
Ar 2.347859e-02 0.000000e+00 0.000000e+00
1
Step 434000
Ar 2.184560e-02 0.000000e+00 0.000000e+00
1
Step 435000
Ar 4.001049e-02 0.000000e+00 0.000000e+00
1
Step 436000
Ar 1.774408e-02 0.000000e+00 0.000000e+00
1
Step 437000
Ar 7.905215e-02 0.000000e+00 0.000000e+00
1
Step 438000
Ar -1.392401e-02 0.000000e+00 0.000000e+00
1
Step 439000
Ar 4.559975e-03 0.000000e+00 0.000000e+00
1
Step 440000
Ar -4.605897e-02 0.000000e+00 0.000000e+00
1
Step 441000
Ar 6.493588e-02 0.000000e+00 0.000000e+00
1
Step 442000
Ar -2.377850e-02 0.000000e+00 0.000000e+00
1
Step 443000
Ar -7.144288e-04 0.000000e+00 0.000000e+00
1
Step 444000
Ar -1.130128e-02 0.000000e+00 0.000000e+00
1
Step 445000
Ar 1.199223e-02 0.000000e+00 0.000000e+00
1
Step 446000
Ar 1.160753e-02 0.000000e+00 0.000000e+00
1
Step 447000
Ar -4.717184e-02 0.000000e+00 0.000000e+00
1
Step 448000
Ar -3.288371e-02 0.000000e+00 0.000000e+00
1
Step 449000
Ar -3.527585e-03 0.000000e+00 0.000000e+00
1
Step 450000
Ar -5.586502e-03 0.000000e+00 0.000000e+00
1
Step 451000
Ar -1.397579e-03 0.000000e+00 0.000000e+00
1
Step 452000
Ar 7.105521e-02 0.000000e+00 0.000000e+00
1
Step 453000
Ar -2.487909e-02 0.000000e+00 0.000000e+00
1
Step 454000
Ar -1.261575e-02 0.000000e+00 0.000000e+00
1
Step 455000
Ar 1.326735e-02 0.000000e+00 0.000000e+00
1
Step 456000
Ar 1.883350e-02 0.000000e+00 0.000000e+00
1
Step 457000
Ar -5.889061e-03 0.000000e+00 0.000000e+00
1
Step 458000
Ar 2.707263e-02 0.000000e+00 0.000000e+00
1
Step 459000
Ar 2.678829e-02 0.000000e+00 0.000000e+00
1
Step 460000
Ar -3.805539e-02 0.000000e+00 0.000000e+00
1
Step 461000
Ar 2.263312e-03 0.000000e+00 0.000000e+00
1
Step 462000
Ar 1.715424e-02 0.000000e+00 0.000000e+00
1
Step 463000
Ar 6.858651e-03 0.000000e+00 0.000000e+00
1
Step 464000
Ar -2.667679e-02 0.000000e+00 0.000000e+00
1
Step 465000
Ar -3.542762e-02 0.000000e+00 0.000000e+00
1
Step 466000
Ar -3.648126e-02 0.000000e+00 0.000000e+00
1
Step 467000
Ar -2.133577e-02 0.000000e+00 0.000000e+00
1
Step 468000
Ar -3.528042e-03 0.000000e+00 0.000000e+00
1
Step 469000
Ar 1.457405e-02 0.000000e+00 0.000000e+00
1
Step 470000
Ar 8.940857e-03 0.000000e+00 0.000000e+00
1
Step 471000
Ar -2.918178e-03 0.000000e+00 0.000000e+00
1
Step 472000
Ar -6.634379e-04 0.000000e+00 0.000000e+00
1
Step 473000
Ar -3.813437e-02 0.000000e+00 0.000000e+00
1
Step 474000
Ar -3.474548e-02 0.000000e+00 0.000000e+00
1
Step 475000
Ar -2.323312e-02 0.000000e+00 0.000000e+00
1
Step 476000
Ar 3.590224e-02 0.000000e+00 0.000000e+00
1
Step 477000
Ar 2.221186e-03 0.000000e+00 0.000000e+00
1
Step 478000
Ar -1.376601e-02 0.000000e+00 0.000000e+00
1
Step 479000
Ar 5.156975e-03 0.000000e+00 0.000000e+00
1
Step 480000
Ar 1.951676e-02 0.000000e+00 0.000000e+00
1
Step 481000
Ar -4.927024e-03 0.000000e+00 0.000000e+00
1
Step 482000
Ar -1.993207e-03 0.000000e+00 0.000000e+00
1
Step 483000
Ar -9.254566e-03 0.000000e+00 0.000000e+00
1
Step 484000
Ar 3.928761e-02 0.000000e+00 0.000000e+00
1
Step 485000
Ar 2.999972e-02 0.000000e+00 0.000000e+00
1
Step 486000
Ar 2.054555e-02 0.000000e+00 0.000000e+00
1
Step 487000
Ar -6.032211e-02 0.000000e+00 0.000000e+00
1
Step 488000
Ar 4.567313e-02 0.000000e+00 0.000000e+00
1
Step 489000
Ar 7.084389e-02 0.000000e+00 0.000000e+00
1
Step 490000
Ar -3.958577e-02 0.000000e+00 0.000000e+00
1
Step 491000
Ar 2.448447e-02 0.000000e+00 0.000000e+00
1
Step 492000
Ar 4.174962e-02 0.000000e+00 0.000000e+00
1
Step 493000
Ar -1.289398e-02 0.000000e+00 0.000000e+00
1
Step 494000
Ar 1.493256e-02 0.000000e+00 0.000000e+00
1
Step 495000
Ar 5.037825e-02 0.000000e+00 0.000000e+00
1
Step 496000
Ar -2.993223e-02 0.000000e+00 0.000000e+00
1
Step 497000
Ar 1.897231e-02 0.000000e+00 0.000000e+00
1
Step 498000
Ar 1.711661e-02 0.000000e+00 0.000000e+00
1
Step 499000
Ar -5.097365e-02 0.000000e+00 0.000000e+00
