1
Step 120000
Ar 9.484382e-01 0.000000e+00 0.000000e+00
1
Step 121000
Ar 9.193525e-01 0.000000e+00 0.000000e+00
1
Step 122000
Ar 7.293049e-01 0.000000e+00 0.000000e+00
1
Step 123000
Ar 8.513992e-01 0.000000e+00 0.000000e+00
1
Step 124000
Ar 1.119856e+00 0.000000e+00 0.000000e+00
1
Step 125000
Ar 1.158745e+00 0.000000e+00 0.000000e+00
1
Step 126000
Ar 1.194914e+00 0.000000e+00 0.000000e+00
1
Step 127000
Ar 1.207285e+00 0.000000e+00 0.000000e+00
1
Step 128000
Ar 1.156900e+00 0.000000e+00 0.000000e+00
1
Step 129000
Ar 9.409570e-01 0.000000e+00 0.000000e+00
1
Step 130000
Ar 8.900667e-01 0.000000e+00 0.000000e+00
1
Step 131000
Ar 8.731644e-01 0.000000e+00 0.000000e+00
1
Step 132000
Ar 1.080921e+00 0.000000e+00 0.000000e+00
1
Step 133000
Ar 1.093608e+00 0.000000e+00 0.000000e+00
1
Step 134000
Ar 9.339259e-01 0.000000e+00 0.000000e+00
1
Step 135000
Ar 8.585018e-01 0.000000e+00 0.000000e+00
1
Step 136000
Ar 9.001450e-01 0.000000e+00 0.000000e+00
1
Step 137000
Ar 8.800214e-01 0.000000e+00 0.000000e+00
1
Step 138000
Ar 9.056383e-01 0.000000e+00 0.000000e+00
1
Step 139000
Ar 9.579391e-01 0.000000e+00 0.000000e+00
1
Step 140000
Ar 1.061665e+00 0.000000e+00 0.000000e+00
1
Step 141000
Ar 1.134667e+00 0.000000e+00 0.000000e+00
1
Step 142000
Ar 9.957198e-01 0.000000e+00 0.000000e+00
1
Step 143000
Ar 9.774513e-01 0.000000e+00 0.000000e+00
1
Step 144000
Ar 9.668805e-01 0.000000e+00 0.000000e+00
1
Step 145000
Ar 1.030122e+00 0.000000e+00 0.000000e+00
1
Step 146000
Ar 1.053259e+00 0.000000e+00 0.000000e+00
1
Step 147000
Ar 1.105710e+00 0.000000e+00 0.000000e+00
1
Step 148000
Ar 9.888043e-01 0.000000e+00 0.000000e+00
1
Step 149000
Ar 9.505905e-01 0.000000e+00 0.000000e+00
1
Step 150000
Ar 1.240567e+00 0.000000e+00 0.000000e+00
1
Step 151000
Ar 1.273376e+00 0.000000e+00 0.000000e+00
1
Step 152000
Ar 1.167508e+00 0.000000e+00 0.000000e+00
1
Step 153000
Ar 1.180825e+00 0.000000e+00 0.000000e+00
1
Step 154000
Ar 1.218714e+00 0.000000e+00 0.000000e+00
1
Step 155000
Ar 1.251252e+00 0.000000e+00 0.000000e+00
1
Step 156000
Ar 1.283366e+00 0.000000e+00 0.000000e+00
1
Step 157000
Ar 1.324389e+00 0.000000e+00 0.000000e+00
1
Step 158000
Ar 1.306960e+00 0.000000e+00 0.000000e+00
1
Step 159000
Ar 1.203277e+00 0.000000e+00 0.000000e+00
1
Step 160000
Ar 1.023287e+00 0.000000e+00 0.000000e+00
1
Step 161000
Ar 1.005652e+00 0.000000e+00 0.000000e+00
1
Step 162000
Ar 7.567164e-01 0.000000e+00 0.000000e+00
1
Step 163000
Ar 1.086548e+00 0.000000e+00 0.000000e+00
1
Step 164000
Ar 1.070133e+00 0.000000e+00 0.000000e+00
1
Step 165000
Ar 1.036519e+00 0.000000e+00 0.000000e+00
1
Step 166000
Ar 1.042703e+00 0.000000e+00 0.000000e+00
1
Step 167000
Ar 1.005087e+00 0.000000e+00 0.000000e+00
1
Step 168000
Ar 1.055620e+00 0.000000e+00 0.000000e+00
1
Step 169000
Ar 1.142911e+00 0.000000e+00 0.000000e+00
1
Step 170000
Ar 8.422646e-01 0.000000e+00 0.000000e+00
1
Step 171000
Ar 8.222054e-01 0.000000e+00 0.000000e+00
1
Step 172000
Ar 7.736194e-01 0.000000e+00 0.000000e+00
1
Step 173000
Ar 7.936652e-01 0.000000e+00 0.000000e+00
1
Step 174000
Ar 8.030337e-01 0.000000e+00 0.000000e+00
1
Step 175000
Ar 8.119484e-01 0.000000e+00 0.000000e+00
1
Step 176000
Ar 7.408795e-01 0.000000e+00 0.000000e+00
1
Step 177000
Ar 7.119608e-01 0.000000e+00 0.000000e+00
1
Step 178000
Ar 8.285808e-01 0.000000e+00 0.000000e+00
1
Step 179000
Ar 9.212774e-01 0.000000e+00 0.000000e+00
1
Step 180000
Ar 9.776177e-01 0.000000e+00 0.000000e+00
1
Step 181000
Ar 9.441191e-01 0.000000e+00 0.000000e+00
1
Step 182000
Ar 1.015207e+00 0.000000e+00 0.000000e+00
1
Step 183000
Ar 1.039783e+00 0.000000e+00 0.000000e+00
1
Step 184000
Ar 1.076639e+00 0.000000e+00 0.000000e+00
1
Step 185000
Ar 1.128903e+00 0.000000e+00 0.000000e+00
1
Step 186000
Ar 1.113521e+00 0.000000e+00 0.000000e+00
1
Step 187000
Ar 1.149365e+00 0.000000e+00 0.000000e+00
1
Step 188000
Ar 1.100770e+00 0.000000e+00 0.000000e+00
1
Step 189000
Ar 1.093143e+00 0.000000e+00 0.000000e+00
1
Step 190000
Ar 1.236198e+00 0.000000e+00 0.000000e+00
1
Step 191000
Ar 1.224542e+00 0.000000e+00 0.000000e+00
1
Step 192000
Ar 1.186940e+00 0.000000e+00 0.000000e+00
1
Step 193000
Ar 1.171066e+00 0.000000e+00 0.000000e+00
1
Step 194000
Ar 1.231204e+00 0.000000e+00 0.000000e+00
1
Step 195000
Ar 1.184308e+00 0.000000e+00 0.000000e+00
1
Step 196000
Ar 1.290146e+00 0.000000e+00 0.000000e+00
1
Step 197000
Ar 1.368169e+00 0.000000e+00 0.000000e+00
1
Step 198000
Ar 1.314132e+00 0.000000e+00 0.000000e+00
1
Step 199000
Ar 1.354266e+00 0.000000e+00 0.000000e+00
1
Step 200000
Ar 1.406439e+00 0.000000e+00 0.000000e+00
1
Step 201000
Ar 1.317806e+00 0.000000e+00 0.000000e+00
1
Step 202000
Ar 1.372996e+00 0.000000e+00 0.000000e+00
1
Step 203000
Ar 1.395921e+00 0.000000e+00 0.000000e+00
1
Step 204000
Ar 6.936991e-01 0.000000e+00 0.000000e+00
1
Step 205000
Ar 6.738468e-01 0.000000e+00 0.000000e+00
1
Step 206000
Ar 6.337338e-01 0.000000e+00 0.000000e+00
1
Step 207000
Ar -1.093845e+00 0.000000e+00 0.000000e+00
1
Step 208000
Ar -1.151764e+00 0.000000e+00 0.000000e+00
1
Step 209000
Ar -9.976660e-01 0.000000e+00 0.000000e+00
1
Step 210000
Ar -1.078614e+00 0.000000e+00 0.000000e+00
1
Step 211000
Ar -1.172988e+00 0.000000e+00 0.000000e+00
1
Step 212000
Ar -1.193205e+00 0.000000e+00 0.000000e+00
1
Step 213000
Ar -1.203884e+00 0.000000e+00 0.000000e+00
1
Step 214000
Ar -1.181473e+00 0.000000e+00 0.000000e+00
1
Step 215000
Ar -1.236729e+00 0.000000e+00 0.000000e+00
1
Step 216000
Ar -1.219148e+00 0.000000e+00 0.000000e+00
1
Step 217000
Ar -1.317079e+00 0.000000e+00 0.000000e+00
1
Step 218000
Ar -1.348383e+00 0.000000e+00 0.000000e+00
1
Step 219000
Ar -1.287021e+00 0.000000e+00 0.000000e+00
1
Step 220000
Ar -1.300473e+00 0.000000e+00 0.000000e+00
1
Step 221000
Ar -1.251417e+00 0.000000e+00 0.000000e+00
1
Step 222000
Ar -1.104827e+00 0.000000e+00 0.000000e+00
1
Step 223000
Ar -9.259334e-01 0.000000e+00 0.000000e+00
1
Step 224000
Ar -1.061413e+00 0.000000e+00 0.000000e+00
1
Step 225000
Ar -1.042435e+00 0.000000e+00 0.000000e+00
1
Step 226000
Ar -1.013357e+00 0.000000e+00 0.000000e+00
1
Step 227000
Ar -1.025615e+00 0.000000e+00 0.000000e+00
1
Step 228000
Ar -9.693992e-01 0.000000e+00 0.000000e+00
1
Step 229000
Ar -8.810500e-01 0.000000e+00 0.000000e+00
1
Step 230000
Ar -7.817651e-01 0.000000e+00 0.000000e+00
1
Step 231000
Ar -8.453555e-01 0.000000e+00 0.000000e+00
1
Step 232000
Ar -9.039690e-01 0.000000e+00 0.000000e+00
1
Step 233000
Ar -9.897519e-01 0.000000e+00 0.000000e+00
1
Step 234000
Ar -9.150354e-01 0.000000e+00 0.000000e+00
1
Step 235000
Ar -8.112963e-01 0.000000e+00 0.000000e+00
1
Step 236000
Ar -8.895546e-01 0.000000e+00 0.000000e+00
1
Step 237000
Ar -1.034131e+00 0.000000e+00 0.000000e+00
1
Step 238000
Ar -1.051393e+00 0.000000e+00 0.000000e+00
1
Step 239000
Ar -8.317154e-01 0.000000e+00 0.000000e+00
1
Step 240000
Ar -7.566028e-01 0.000000e+00 0.000000e+00
1
Step 241000
Ar -7.428563e-01 0.000000e+00 0.000000e+00
1
Step 242000
Ar -8.677787e-01 0.000000e+00 0.000000e+00
1
Step 243000
Ar -7.968923e-01 0.000000e+00 0.000000e+00
1
Step 244000
Ar -1.275566e+00 0.000000e+00 0.000000e+00
1
Step 245000
Ar -9.578923e-01 0.000000e+00 0.000000e+00
1
Step 246000
Ar -9.729447e-01 0.000000e+00 0.000000e+00
1
Step 247000
Ar -1.166376e+00 0.000000e+00 0.000000e+00
1
Step 248000
Ar -1.127568e+00 0.000000e+00 0.000000e+00
1
Step 249000
Ar -1.109333e+00 0.000000e+00 0.000000e+00
1
Step 250000
Ar -1.142333e+00 0.000000e+00 0.000000e+00
1
Step 251000
Ar -1.123276e+00 0.000000e+00 0.000000e+00
1
Step 252000
Ar -1.262020e+00 0.000000e+00 0.000000e+00
1
Step 253000
Ar -1.214868e+00 0.000000e+00 0.000000e+00
1
Step 254000
Ar -1.085267e+00 0.000000e+00 0.000000e+00
1
Step 255000
Ar -1.000789e+00 0.000000e+00 0.000000e+00
1
Step 256000
Ar -1.069236e+00 0.000000e+00 0.000000e+00
1
Step 257000
Ar -1.020411e+00 0.000000e+00 0.000000e+00
1
Step 258000
Ar -1.014790e+00 0.000000e+00 0.000000e+00
1
Step 259000
Ar -7.085471e-01 0.000000e+00 0.000000e+00
1
Step 260000
Ar -6.392969e-01 0.000000e+00 0.000000e+00
1
Step 261000
Ar -6.907868e-01 0.000000e+00 0.000000e+00
1
Step 262000
Ar -6.595269e-01 0.000000e+00 0.000000e+00
1
Step 263000
Ar -4.649104e-01 0.000000e+00 0.000000e+00
1
Step 264000
Ar -5.909847e-01 0.000000e+00 0.000000e+00
1
Step 265000
Ar -5.750772e-01 0.000000e+00 0.000000e+00
1
Step 266000
Ar -8.580329e-01 0.000000e+00 0.000000e+00
1
Step 267000
Ar -9.413534e-01 0.000000e+00 0.000000e+00
1
Step 268000
Ar -9.480338e-01 0.000000e+00 0.000000e+00
1
Step 269000
Ar -7.700786e-01 0.000000e+00 0.000000e+00
1
Step 270000
Ar -8.230818e-01 0.000000e+00 0.000000e+00
1
Step 271000
Ar -7.208409e-01 0.000000e+00 0.000000e+00
1
Step 272000
Ar -6.105872e-01 0.000000e+00 0.000000e+00
1
Step 273000
Ar -7.002770e-01 0.000000e+00 0.000000e+00
1
Step 274000
Ar -6.252259e-01 0.000000e+00 0.000000e+00
1
Step 275000
Ar -6.796687e-01 0.000000e+00 0.000000e+00
1
Step 276000
Ar -6.727440e-01 0.000000e+00 0.000000e+00
1
Step 277000
Ar -6.539885e-01 0.000000e+00 0.000000e+00
1
Step 278000
Ar -5.413806e-01 0.000000e+00 0.000000e+00
1
Step 279000
Ar -5.647273e-01 0.000000e+00 0.000000e+00
1
Step 280000
Ar 6.141201e-01 0.000000e+00 0.000000e+00
1
Step 281000
Ar 4.585315e-01 0.000000e+00 0.000000e+00
1
Step 282000
Ar 4.050980e-01 0.000000e+00 0.000000e+00
1
Step 283000
Ar 3.540111e-01 0.000000e+00 0.000000e+00
1
Step 284000
Ar 5.886982e-01 0.000000e+00 0.000000e+00
1
Step 285000
Ar 5.554164e-01 0.000000e+00 0.000000e+00
1
Step 286000
Ar 7.869788e-01 0.000000e+00 0.000000e+00
1
Step 287000
Ar 7.834813e-01 0.000000e+00 0.000000e+00
1
Step 288000
Ar 6.683653e-01 0.000000e+00 0.000000e+00
1
Step 289000
Ar 6.502927e-01 0.000000e+00 0.000000e+00
1
Step 290000
Ar 6.046901e-01 0.000000e+00 0.000000e+00
1
Step 291000
Ar 5.645628e-01 0.000000e+00 0.000000e+00
1
Step 292000
Ar 6.407663e-01 0.000000e+00 0.000000e+00
1
Step 293000
Ar 7.232984e-01 0.000000e+00 0.000000e+00
1
Step 294000
Ar 6.833382e-01 0.000000e+00 0.000000e+00
1
Step 295000
Ar 7.032310e-01 0.000000e+00 0.000000e+00
1
Step 296000
Ar 4.993014e-01 0.000000e+00 0.000000e+00
1
Step 297000
Ar 4.355418e-01 0.000000e+00 0.000000e+00
1
Step 298000
Ar 8.513159e-01 0.000000e+00 0.000000e+00
1
Step 299000
Ar 9.603308e-01 0.000000e+00 0.000000e+00
1
Step 300000
Ar 1.046632e+00 0.000000e+00 0.000000e+00
1
Step 301000
Ar 1.125003e+00 0.000000e+00 0.000000e+00
1
Step 302000
Ar 1.139055e+00 0.000000e+00 0.000000e+00
1
Step 303000
Ar 1.161788e+00 0.000000e+00 0.000000e+00
1
Step 304000
Ar 1.066785e+00 0.000000e+00 0.000000e+00
1
Step 305000
Ar 8.660462e-01 0.000000e+00 0.000000e+00
1
Step 306000
Ar 8.897768e-01 0.000000e+00 0.000000e+00
1
Step 307000
Ar 9.147549e-01 0.000000e+00 0.000000e+00
1
Step 308000
Ar 9.082729e-01 0.000000e+00 0.000000e+00
1
Step 309000
Ar 8.339324e-01 0.000000e+00 0.000000e+00
1
Step 310000
Ar 8.093271e-01 0.000000e+00 0.000000e+00
1
Step 311000
Ar 7.948497e-01 0.000000e+00 0.000000e+00
1
Step 312000
Ar 8.177711e-01 0.000000e+00 0.000000e+00
1
Step 313000
Ar 8.990213e-01 0.000000e+00 0.000000e+00
1
Step 314000
Ar 8.794321e-01 0.000000e+00 0.000000e+00
1
Step 315000
Ar 8.630563e-01 0.000000e+00 0.000000e+00
1
Step 316000
Ar 7.528849e-01 0.000000e+00 0.000000e+00
1
Step 317000
Ar 5.808061e-01 0.000000e+00 0.000000e+00
1
Step 318000
Ar 4.823846e-01 0.000000e+00 0.000000e+00
1
Step 319000
Ar 4.929479e-02 0.000000e+00 0.000000e+00
1
Step 320000
Ar -4.309142e-01 0.000000e+00 0.000000e+00
1
Step 321000
Ar -4.988561e-01 0.000000e+00 0.000000e+00
1
Step 322000
Ar -6.473390e-01 0.000000e+00 0.000000e+00
1
Step 323000
Ar -5.300521e-01 0.000000e+00 0.000000e+00
1
Step 324000
Ar -6.042266e-01 0.000000e+00 0.000000e+00
1
Step 325000
Ar -5.116474e-01 0.000000e+00 0.000000e+00
1
Step 326000
Ar -4.869643e-01 0.000000e+00 0.000000e+00
1
Step 327000
Ar -4.244702e-01 0.000000e+00 0.000000e+00
1
Step 328000
Ar -2.964842e-01 0.000000e+00 0.000000e+00
1
Step 329000
Ar -3.284145e-01 0.000000e+00 0.000000e+00
1
Step 330000
Ar -3.120961e-01 0.000000e+00 0.000000e+00
1
Step 331000
Ar -2.602218e-01 0.000000e+00 0.000000e+00
1
Step 332000
Ar -1.399434e-01 0.000000e+00 0.000000e+00
1
Step 333000
Ar -2.436162e-01 0.000000e+00 0.000000e+00
1
Step 334000
Ar -2.306606e-01 0.000000e+00 0.000000e+00
1
Step 335000
Ar -3.694643e-01 0.000000e+00 0.000000e+00
1
Step 336000
Ar -1.981244e-01 0.000000e+00 0.000000e+00
1
Step 337000
Ar -3.834278e-01 0.000000e+00 0.000000e+00
1
Step 338000
Ar -3.993389e-01 0.000000e+00 0.000000e+00
1
Step 339000
Ar -4.152758e-01 0.000000e+00 0.000000e+00
1
Step 340000
Ar -3.466587e-01 0.000000e+00 0.000000e+00
1
Step 341000
Ar -9.208091e-01 0.000000e+00 0.000000e+00
1
Step 342000
Ar -9.338668e-01 0.000000e+00 0.000000e+00
1
Step 343000
Ar -9.603145e-01 0.000000e+00 0.000000e+00
1
Step 344000
Ar -9.843436e-01 0.000000e+00 0.000000e+00
1
Step 345000
Ar -9.841607e-01 0.000000e+00 0.000000e+00
1
Step 346000
Ar -8.745713e-01 0.000000e+00 0.000000e+00
1
Step 347000
Ar -7.187062e-01 0.000000e+00 0.000000e+00
1
Step 348000
Ar -7.086206e-01 0.000000e+00 0.000000e+00
1
Step 349000
Ar -1.097381e+00 0.000000e+00 0.000000e+00
1
Step 350000
Ar -1.159434e+00 0.000000e+00 0.000000e+00
1
Step 351000
Ar -1.187569e+00 0.000000e+00 0.000000e+00
1
Step 352000
Ar -1.406560e+00 0.000000e+00 0.000000e+00
1
Step 353000
Ar -1.226979e+00 0.000000e+00 0.000000e+00
1
Step 354000
Ar -1.283524e+00 0.000000e+00 0.000000e+00
1
Step 355000
Ar -1.060510e+00 0.000000e+00 0.000000e+00
1
Step 356000
Ar -1.037886e+00 0.000000e+00 0.000000e+00
1
Step 357000
Ar -1.050244e+00 0.000000e+00 0.000000e+00
1
Step 358000
Ar -1.135709e+00 0.000000e+00 0.000000e+00
1
Step 359000
Ar -1.153111e+00 0.000000e+00 0.000000e+00
1
Step 360000
Ar -1.071629e+00 0.000000e+00 0.000000e+00
1
Step 361000
Ar -1.119349e+00 0.000000e+00 0.000000e+00
1
Step 362000
Ar -1.087181e+00 0.000000e+00 0.000000e+00
1
Step 363000
Ar -7.280840e-01 0.000000e+00 0.000000e+00
1
Step 364000
Ar -8.031592e-01 0.000000e+00 0.000000e+00
1
Step 365000
Ar -8.933852e-01 0.000000e+00 0.000000e+00
1
Step 366000
Ar -8.655144e-01 0.000000e+00 0.000000e+00
1
Step 367000
Ar -8.502796e-01 0.000000e+00 0.000000e+00
1
Step 368000
Ar -7.904493e-01 0.000000e+00 0.000000e+00
1
Step 369000
Ar -7.362631e-01 0.000000e+00 0.000000e+00
1
Step 370000
Ar -7.484348e-01 0.000000e+00 0.000000e+00
1
Step 371000
Ar -7.636926e-01 0.000000e+00 0.000000e+00
1
Step 372000
Ar -8.344479e-01 0.000000e+00 0.000000e+00
1
Step 373000
Ar -9.489211e-01 0.000000e+00 0.000000e+00
1
Step 374000
Ar -9.109793e-01 0.000000e+00 0.000000e+00
1
Step 375000
Ar -8.915773e-01 0.000000e+00 0.000000e+00
1
Step 376000
Ar -8.208306e-01 0.000000e+00 0.000000e+00
1
Step 377000
Ar -7.836776e-01 0.000000e+00 0.000000e+00
1
Step 378000
Ar -4.463359e-01 0.000000e+00 0.000000e+00
1
Step 379000
Ar -5.850853e-01 0.000000e+00 0.000000e+00
1
Step 380000
Ar -5.578398e-01 0.000000e+00 0.000000e+00
1
Step 381000
Ar -5.765148e-01 0.000000e+00 0.000000e+00
1
Step 382000
Ar -6.217506e-01 0.000000e+00 0.000000e+00
1
Step 383000
Ar -6.893188e-01 0.000000e+00 0.000000e+00
1
Step 384000
Ar -5.974385e-01 0.000000e+00 0.000000e+00
1
Step 385000
Ar -6.327785e-01 0.000000e+00 0.000000e+00
1
Step 386000
Ar -8.571849e-01 0.000000e+00 0.000000e+00
1
Step 387000
Ar -8.116245e-01 0.000000e+00 0.000000e+00
1
Step 388000
Ar -7.755935e-01 0.000000e+00 0.000000e+00
1
Step 389000
Ar -8.755417e-01 0.000000e+00 0.000000e+00
1
Step 390000
Ar -1.240752e+00 0.000000e+00 0.000000e+00
1
Step 391000
Ar -1.074672e+00 0.000000e+00 0.000000e+00
1
Step 392000
Ar -1.008993e+00 0.000000e+00 0.000000e+00
1
Step 393000
Ar -9.345059e-01 0.000000e+00 0.000000e+00
1
Step 394000
Ar -9.788710e-01 0.000000e+00 0.000000e+00
1
Step 395000
Ar -9.623598e-01 0.000000e+00 0.000000e+00
1
Step 396000
Ar -9.014623e-01 0.000000e+00 0.000000e+00
1
Step 397000
Ar -9.266114e-01 0.000000e+00 0.000000e+00
1
Step 398000
Ar -1.036212e+00 0.000000e+00 0.000000e+00
1
Step 399000
Ar -9.932808e-01 0.000000e+00 0.000000e+00
1
Step 400000
Ar -1.181708e+00 0.000000e+00 0.000000e+00
1
Step 401000
Ar -1.135143e+00 0.000000e+00 0.000000e+00
1
Step 402000
Ar -1.110965e+00 0.000000e+00 0.000000e+00
1
Step 403000
Ar -1.181373e+00 0.000000e+00 0.000000e+00
1
Step 404000
Ar -1.168029e+00 0.000000e+00 0.000000e+00
1
Step 405000
Ar -1.084010e+00 0.000000e+00 0.000000e+00
1
Step 406000
Ar -1.149264e+00 0.000000e+00 0.000000e+00
1
Step 407000
Ar -1.102712e+00 0.000000e+00 0.000000e+00
1
Step 408000
Ar -1.117228e+00 0.000000e+00 0.000000e+00
1
Step 409000
Ar -1.136311e+00 0.000000e+00 0.000000e+00
1
Step 410000
Ar -1.162712e+00 0.000000e+00 0.000000e+00
1
Step 411000
Ar -8.326335e-01 0.000000e+00 0.000000e+00
1
Step 412000
Ar -4.765358e-01 0.000000e+00 0.000000e+00
1
Step 413000
Ar -4.550544e-01 0.000000e+00 0.000000e+00
1
Step 414000
Ar -5.270600e-01 0.000000e+00 0.000000e+00
1
Step 415000
Ar -4.374673e-01 0.000000e+00 0.000000e+00
1
Step 416000
Ar -7.387522e-01 0.000000e+00 0.000000e+00
1
Step 417000
Ar -7.477848e-01 0.000000e+00 0.000000e+00
1
Step 418000
Ar -9.475646e-01 0.000000e+00 0.000000e+00
1
Step 419000
Ar -1.024730e+00 0.000000e+00 0.000000e+00
1
Step 420000
Ar -1.019231e+00 0.000000e+00 0.000000e+00
1
Step 421000
Ar -9.059324e-01 0.000000e+00 0.000000e+00
1
Step 422000
Ar -7.637730e-01 0.000000e+00 0.000000e+00
1
Step 423000
Ar -8.064521e-01 0.000000e+00 0.000000e+00
1
Step 424000
Ar -8.218639e-01 0.000000e+00 0.000000e+00
1
Step 425000
Ar -5.494447e-01 0.000000e+00 0.000000e+00
1
Step 426000
Ar -5.124953e-01 0.000000e+00 0.000000e+00
1
Step 427000
Ar -4.763509e-01 0.000000e+00 0.000000e+00
1
Step 428000
Ar -5.553136e-01 0.000000e+00 0.000000e+00
1
Step 429000
Ar -6.103291e-01 0.000000e+00 0.000000e+00
1
Step 430000
Ar -7.037949e-01 0.000000e+00 0.000000e+00
1
Step 431000
Ar -3.278988e-01 0.000000e+00 0.000000e+00
1
Step 432000
Ar -1.819216e-01 0.000000e+00 0.000000e+00
1
Step 433000
Ar -2.218791e-01 0.000000e+00 0.000000e+00
1
Step 434000
Ar 2.938270e-01 0.000000e+00 0.000000e+00
1
Step 435000
Ar 1.674069e-01 0.000000e+00 0.000000e+00
1
Step 436000
Ar 1.617268e-01 0.000000e+00 0.000000e+00
1
Step 437000
Ar 1.415795e-01 0.000000e+00 0.000000e+00
1
Step 438000
Ar 1.209481e-01 0.000000e+00 0.000000e+00
1
Step 439000
Ar -1.182728e-01 0.000000e+00 0.000000e+00
1
Step 440000
Ar -1.290331e-01 0.000000e+00 0.000000e+00
1
Step 441000
Ar -1.041364e-01 0.000000e+00 0.000000e+00
1
Step 442000
Ar -6.539620e-02 0.000000e+00 0.000000e+00
1
Step 443000
Ar -4.700545e-02 0.000000e+00 0.000000e+00
1
Step 444000
Ar -1.155559e-01 0.000000e+00 0.000000e+00
1
Step 445000
Ar 1.490206e-01 0.000000e+00 0.000000e+00
1
Step 446000
Ar 7.767711e-02 0.000000e+00 0.000000e+00
1
Step 447000
Ar 9.729437e-02 0.000000e+00 0.000000e+00
1
Step 448000
Ar 6.336515e-02 0.000000e+00 0.000000e+00
1
Step 449000
Ar 1.311550e-01 0.000000e+00 0.000000e+00
1
Step 450000
Ar 8.578606e-02 0.000000e+00 0.000000e+00
1
Step 451000
Ar 1.078364e-01 0.000000e+00 0.000000e+00
1
Step 452000
Ar -9.309356e-02 0.000000e+00 0.000000e+00
1
Step 453000
Ar 3.827709e-02 0.000000e+00 0.000000e+00
1
Step 454000
Ar 6.476490e-02 0.000000e+00 0.000000e+00
1
Step 455000
Ar 2.432748e-01 0.000000e+00 0.000000e+00
1
Step 456000
Ar 2.210940e-01 0.000000e+00 0.000000e+00
1
Step 457000
Ar 2.731932e-01 0.000000e+00 0.000000e+00
1
Step 458000
Ar 2.668800e-01 0.000000e+00 0.000000e+00
1
Step 459000
Ar 1.892926e-01 0.000000e+00 0.000000e+00
1
Step 460000
Ar 2.083546e-01 0.000000e+00 0.000000e+00
1
Step 461000
Ar 2.308647e-01 0.000000e+00 0.000000e+00
1
Step 462000
Ar 2.576476e-01 0.000000e+00 0.000000e+00
1
Step 463000
Ar 2.466077e-01 0.000000e+00 0.000000e+00
1
Step 464000
Ar 5.197785e-01 0.000000e+00 0.000000e+00
1
Step 465000
Ar 5.338270e-01 0.000000e+00 0.000000e+00
1
Step 466000
Ar 3.859349e-01 0.000000e+00 0.000000e+00
1
Step 467000
Ar 5.426107e-01 0.000000e+00 0.000000e+00
1
Step 468000
Ar 5.718903e-01 0.000000e+00 0.000000e+00
1
Step 469000
Ar 7.389780e-01 0.000000e+00 0.000000e+00
1
Step 470000
Ar 6.582028e-01 0.000000e+00 0.000000e+00
1
Step 471000
Ar 6.221862e-01 0.000000e+00 0.000000e+00
1
Step 472000
Ar 5.948245e-01 0.000000e+00 0.000000e+00
1
Step 473000
Ar 7.139237e-01 0.000000e+00 0.000000e+00
1
Step 474000
Ar 7.691163e-01 0.000000e+00 0.000000e+00
1
Step 475000
Ar 6.572806e-01 0.000000e+00 0.000000e+00
1
Step 476000
Ar 9.972403e-01 0.000000e+00 0.000000e+00
1
Step 477000
Ar 9.660028e-01 0.000000e+00 0.000000e+00
1
Step 478000
Ar 1.108872e+00 0.000000e+00 0.000000e+00
1
Step 479000
Ar 1.060703e+00 0.000000e+00 0.000000e+00
1
Step 480000
Ar 1.073756e+00 0.000000e+00 0.000000e+00
1
Step 481000
Ar 1.263026e+00 0.000000e+00 0.000000e+00
1
Step 482000
Ar 1.270331e+00 0.000000e+00 0.000000e+00
1
Step 483000
Ar 1.247471e+00 0.000000e+00 0.000000e+00
1
Step 484000
Ar 1.258720e+00 0.000000e+00 0.000000e+00
1
Step 485000
Ar 8.378220e-01 0.000000e+00 0.000000e+00
1
Step 486000
Ar 7.023623e-01 0.000000e+00 0.000000e+00
1
Step 487000
Ar 8.205882e-01 0.000000e+00 0.000000e+00
1
Step 488000
Ar 1.205953e+00 0.000000e+00 0.000000e+00
1
Step 489000
Ar 1.381315e+00 0.000000e+00 0.000000e+00
1
Step 490000
Ar 1.386338e+00 0.000000e+00 0.000000e+00
1
Step 491000
Ar 1.200795e+00 0.000000e+00 0.000000e+00
1
Step 492000
Ar 9.278955e-01 0.000000e+00 0.000000e+00
1
Step 493000
Ar 9.465375e-01 0.000000e+00 0.000000e+00
1
Step 494000
Ar 9.744769e-01 0.000000e+00 0.000000e+00
1
Step 495000
Ar 1.025707e+00 0.000000e+00 0.000000e+00
1
Step 496000
Ar 1.150936e+00 0.000000e+00 0.000000e+00
1
Step 497000
Ar 1.101649e+00 0.000000e+00 0.000000e+00
1
Step 498000
Ar 1.084922e+00 0.000000e+00 0.000000e+00
1
Step 499000
Ar 9.566983e-01 0.000000e+00 0.000000e+00
1
Step 500000
Ar 8.725270e-01 0.000000e+00 0.000000e+00
1
Step 501000
Ar 8.397522e-01 0.000000e+00 0.000000e+00
1
Step 502000
Ar 4.702255e-01 0.000000e+00 0.000000e+00
1
Step 503000
Ar 3.695276e-01 0.000000e+00 0.000000e+00
1
Step 504000
Ar 4.219168e-01 0.000000e+00 0.000000e+00
1
Step 505000
Ar 4.131709e-01 0.000000e+00 0.000000e+00
1
Step 506000
Ar 5.098765e-01 0.000000e+00 0.000000e+00
1
Step 507000
Ar 5.524297e-01 0.000000e+00 0.000000e+00
1
Step 508000
Ar 4.441549e-01 0.000000e+00 0.000000e+00
1
Step 509000
Ar 4.886335e-01 0.000000e+00 0.000000e+00
1
Step 510000
Ar 5.308503e-01 0.000000e+00 0.000000e+00
1
Step 511000
Ar 4.521924e-01 0.000000e+00 0.000000e+00
1
Step 512000
Ar 3.354600e-01 0.000000e+00 0.000000e+00
1
Step 513000
Ar 3.163722e-01 0.000000e+00 0.000000e+00
1
Step 514000
Ar 3.043160e-01 0.000000e+00 0.000000e+00
1
Step 515000
Ar 4.766016e-01 0.000000e+00 0.000000e+00
1
Step 516000
Ar 3.464640e-01 0.000000e+00 0.000000e+00
1
Step 517000
Ar 3.581708e-01 0.000000e+00 0.000000e+00
1
Step 518000
Ar 3.964503e-01 0.000000e+00 0.000000e+00
1
Step 519000
Ar 3.842720e-01 0.000000e+00 0.000000e+00
1
Step 520000
Ar 3.779563e-01 0.000000e+00 0.000000e+00
1
Step 521000
Ar 3.598398e-01 0.000000e+00 0.000000e+00
1
Step 522000
Ar 5.364554e-01 0.000000e+00 0.000000e+00
1
Step 523000
Ar 6.265752e-01 0.000000e+00 0.000000e+00
1
Step 524000
Ar 6.941794e-01 0.000000e+00 0.000000e+00
1
Step 525000
Ar 7.623374e-01 0.000000e+00 0.000000e+00
1
Step 526000
Ar 7.334640e-01 0.000000e+00 0.000000e+00
1
Step 527000
Ar 6.804098e-01 0.000000e+00 0.000000e+00
1
Step 528000
Ar 6.042838e-01 0.000000e+00 0.000000e+00
1
Step 529000
Ar 6.602608e-01 0.000000e+00 0.000000e+00
1
Step 530000
Ar 7.998333e-01 0.000000e+00 0.000000e+00
1
Step 531000
Ar 7.491531e-01 0.000000e+00 0.000000e+00
1
Step 532000
Ar 7.789383e-01 0.000000e+00 0.000000e+00
1
Step 533000
Ar 7.298411e-01 0.000000e+00 0.000000e+00
1
Step 534000
Ar 8.681877e-01 0.000000e+00 0.000000e+00
1
Step 535000
Ar -4.121405e-03 0.000000e+00 0.000000e+00
1
Step 536000
Ar 2.079885e-02 0.000000e+00 0.000000e+00
1
Step 537000
Ar 6.471698e-03 0.000000e+00 0.000000e+00
1
Step 538000
Ar 5.701666e-03 0.000000e+00 0.000000e+00
1
Step 539000
Ar 2.973778e-02 0.000000e+00 0.000000e+00
1
Step 540000
Ar 5.892141e-02 0.000000e+00 0.000000e+00
1
Step 541000
Ar 3.059901e-02 0.000000e+00 0.000000e+00
1
Step 542000
Ar -2.814780e-02 0.000000e+00 0.000000e+00
1
Step 543000
Ar -5.427975e-02 0.000000e+00 0.000000e+00
1
Step 544000
Ar -7.578582e-02 0.000000e+00 0.000000e+00
1
Step 545000
Ar -9.557156e-02 0.000000e+00 0.000000e+00
1
Step 546000
Ar -6.012724e-02 0.000000e+00 0.000000e+00
1
Step 547000
Ar -8.272060e-02 0.000000e+00 0.000000e+00
1
Step 548000
Ar -3.599874e-02 0.000000e+00 0.000000e+00
1
Step 549000
Ar -1.219359e-02 0.000000e+00 0.000000e+00
1
Step 550000
Ar -2.248977e-02 0.000000e+00 0.000000e+00
1
Step 551000
Ar -7.216763e-02 0.000000e+00 0.000000e+00
1
Step 552000
Ar 5.020908e-02 0.000000e+00 0.000000e+00
1
Step 553000
Ar -1.296230e-02 0.000000e+00 0.000000e+00
1
Step 554000
Ar -2.823290e-01 0.000000e+00 0.000000e+00
1
Step 555000
Ar -2.750467e-01 0.000000e+00 0.000000e+00
1
Step 556000
Ar -1.633435e-01 0.000000e+00 0.000000e+00
1
Step 557000
Ar -3.095053e-01 0.000000e+00 0.000000e+00
1
Step 558000
Ar -2.999795e-01 0.000000e+00 0.000000e+00
1
Step 559000
Ar -2.084755e-01 0.000000e+00 0.000000e+00
1
Step 560000
Ar -2.481669e-01 0.000000e+00 0.000000e+00
1
Step 561000
Ar -2.908016e-01 0.000000e+00 0.000000e+00
1
Step 562000
Ar -1.572267e-01 0.000000e+00 0.000000e+00
1
Step 563000
Ar -2.154428e-01 0.000000e+00 0.000000e+00
1
Step 564000
Ar -1.914188e-01 0.000000e+00 0.000000e+00
1
Step 565000
Ar -1.471498e-01 0.000000e+00 0.000000e+00
1
Step 566000
Ar -2.679746e-01 0.000000e+00 0.000000e+00
1
Step 567000
Ar -2.233589e-01 0.000000e+00 0.000000e+00
1
Step 568000
Ar -1.861721e-01 0.000000e+00 0.000000e+00
1
Step 569000
Ar -2.033669e-01 0.000000e+00 0.000000e+00
1
Step 570000
Ar -1.548523e-01 0.000000e+00 0.000000e+00
1
Step 571000
Ar -1.038335e-01 0.000000e+00 0.000000e+00
1
Step 572000
Ar -5.369869e-01 0.000000e+00 0.000000e+00
1
Step 573000
Ar -5.035223e-01 0.000000e+00 0.000000e+00
1
Step 574000
Ar -4.955788e-01 0.000000e+00 0.000000e+00
1
Step 575000
Ar -3.584178e-01 0.000000e+00 0.000000e+00
1
Step 576000
Ar -4.076783e-01 0.000000e+00 0.000000e+00
1
Step 577000
Ar -3.830193e-01 0.000000e+00 0.000000e+00
1
Step 578000
Ar -5.819342e-02 0.000000e+00 0.000000e+00
1
Step 579000
Ar -3.512713e-02 0.000000e+00 0.000000e+00
1
Step 580000
Ar -4.197918e-02 0.000000e+00 0.000000e+00
1
Step 581000
Ar 1.125911e-01 0.000000e+00 0.000000e+00
1
Step 582000
Ar 3.283338e-01 0.000000e+00 0.000000e+00
1
Step 583000
Ar 2.814593e-01 0.000000e+00 0.000000e+00
1
Step 584000
Ar 1.805577e-01 0.000000e+00 0.000000e+00
1
Step 585000
Ar 3.143450e-01 0.000000e+00 0.000000e+00
1
Step 586000
Ar 2.871586e-01 0.000000e+00 0.000000e+00
1
Step 587000
Ar 1.993065e-01 0.000000e+00 0.000000e+00
1
Step 588000
Ar 3.306253e-01 0.000000e+00 0.000000e+00
1
Step 589000
Ar 2.330219e-01 0.000000e+00 0.000000e+00
1
Step 590000
Ar 2.112591e-01 0.000000e+00 0.000000e+00
1
Step 591000
Ar 1.281677e-01 0.000000e+00 0.000000e+00
1
Step 592000
Ar 2.227553e-01 0.000000e+00 0.000000e+00
1
Step 593000
Ar 4.600022e-01 0.000000e+00 0.000000e+00
1
Step 594000
Ar 5.034970e-01 0.000000e+00 0.000000e+00
1
Step 595000
Ar 4.302403e-01 0.000000e+00 0.000000e+00
1
Step 596000
Ar 4.198425e-01 0.000000e+00 0.000000e+00
1
Step 597000
Ar 4.408455e-01 0.000000e+00 0.000000e+00
1
Step 598000
Ar 5.215076e-01 0.000000e+00 0.000000e+00
1
Step 599000
Ar 4.939242e-01 0.000000e+00 0.000000e+00
1
Step 600000
Ar 5.107978e-01 0.000000e+00 0.000000e+00
1
Step 601000
Ar 3.966005e-01 0.000000e+00 0.000000e+00
1
Step 602000
Ar 3.816772e-01 0.000000e+00 0.000000e+00
1
Step 603000
Ar 2.757239e-01 0.000000e+00 0.000000e+00
1
Step 604000
Ar 9.579726e-02 0.000000e+00 0.000000e+00
1
Step 605000
Ar 1.375557e-01 0.000000e+00 0.000000e+00
1
Step 606000
Ar 1.496208e-01 0.000000e+00 0.000000e+00
1
Step 607000
Ar 2.031241e-01 0.000000e+00 0.000000e+00
1
Step 608000
Ar 2.519076e-01 0.000000e+00 0.000000e+00
1
Step 609000
Ar 2.419119e-01 0.000000e+00 0.000000e+00
1
Step 610000
Ar 7.370015e-02 0.000000e+00 0.000000e+00
1
Step 611000
Ar 1.716290e-01 0.000000e+00 0.000000e+00
1
Step 612000
Ar 1.758430e-01 0.000000e+00 0.000000e+00
1
Step 613000
Ar 1.578197e-01 0.000000e+00 0.000000e+00
1
Step 614000
Ar 1.190952e-01 0.000000e+00 0.000000e+00
1
Step 615000
Ar 3.045610e-01 0.000000e+00 0.000000e+00
1
Step 616000
Ar 2.614856e-01 0.000000e+00 0.000000e+00
1
Step 617000
Ar 3.672609e-01 0.000000e+00 0.000000e+00
1
Step 618000
Ar 2.897907e-01 0.000000e+00 0.000000e+00
1
Step 619000
Ar 3.386737e-01 0.000000e+00 0.000000e+00
1
Step 620000
Ar 3.162032e-01 0.000000e+00 0.000000e+00
1
Step 621000
Ar -2.349904e-02 0.000000e+00 0.000000e+00
1
Step 622000
Ar 3.749024e-01 0.000000e+00 0.000000e+00
1
Step 623000
Ar 8.405314e-02 0.000000e+00 0.000000e+00
1
Step 624000
Ar 1.026758e-01 0.000000e+00 0.000000e+00
1
Step 625000
Ar 2.228765e-01 0.000000e+00 0.000000e+00
1
Step 626000
Ar 1.860828e-01 0.000000e+00 0.000000e+00
1
Step 627000
Ar 1.936503e-01 0.000000e+00 0.000000e+00
1
Step 628000
Ar -4.456688e-03 0.000000e+00 0.000000e+00
1
Step 629000
Ar 1.763876e-02 0.000000e+00 0.000000e+00
1
Step 630000
Ar 1.462384e-02 0.000000e+00 0.000000e+00
1
Step 631000
Ar 4.063981e-02 0.000000e+00 0.000000e+00
1
Step 632000
Ar 1.070916e-01 0.000000e+00 0.000000e+00
1
Step 633000
Ar 1.363685e-01 0.000000e+00 0.000000e+00
1
Step 634000
Ar 1.907603e-01 0.000000e+00 0.000000e+00
1
Step 635000
Ar 1.571780e-01 0.000000e+00 0.000000e+00
1
Step 636000
Ar -4.583372e-03 0.000000e+00 0.000000e+00
1
Step 637000
Ar -1.684791e-01 0.000000e+00 0.000000e+00
1
Step 638000
Ar -1.765922e-01 0.000000e+00 0.000000e+00
1
Step 639000
Ar -1.938970e-01 0.000000e+00 0.000000e+00
1
Step 640000
Ar -4.849898e-01 0.000000e+00 0.000000e+00
1
Step 641000
Ar -6.624765e-01 0.000000e+00 0.000000e+00
1
Step 642000
Ar -6.754859e-01 0.000000e+00 0.000000e+00
1
Step 643000
Ar -6.353886e-01 0.000000e+00 0.000000e+00
1
Step 644000
Ar -6.864006e-01 0.000000e+00 0.000000e+00
1
Step 645000
Ar -5.976461e-01 0.000000e+00 0.000000e+00
1
Step 646000
Ar -6.758264e-01 0.000000e+00 0.000000e+00
1
Step 647000
Ar -7.278782e-01 0.000000e+00 0.000000e+00
1
Step 648000
Ar -1.329787e+00 0.000000e+00 0.000000e+00
1
Step 649000
Ar -1.312322e+00 0.000000e+00 0.000000e+00
1
Step 650000
Ar -1.292835e+00 0.000000e+00 0.000000e+00
1
Step 651000