1
Step 120000
Ar 9.806563e-01 0.000000e+00 0.000000e+00
1
Step 121000
Ar 9.957372e-01 0.000000e+00 0.000000e+00
1
Step 122000
Ar 9.955936e-01 0.000000e+00 0.000000e+00
1
Step 123000
Ar 9.820620e-01 0.000000e+00 0.000000e+00
1
Step 124000
Ar 1.002737e+00 0.000000e+00 0.000000e+00
1
Step 125000
Ar 1.000673e+00 0.000000e+00 0.000000e+00
1
Step 126000
Ar 1.016529e+00 0.000000e+00 0.000000e+00
1
Step 127000
Ar 1.010805e+00 0.000000e+00 0.000000e+00
1
Step 128000
Ar 1.010210e+00 0.000000e+00 0.000000e+00
1
Step 129000
Ar 1.020141e+00 0.000000e+00 0.000000e+00
1
Step 130000
Ar 1.022452e+00 0.000000e+00 0.000000e+00
1
Step 131000
Ar 9.912134e-01 0.000000e+00 0.000000e+00
1
Step 132000
Ar 9.911172e-01 0.000000e+00 0.000000e+00
1
Step 133000
Ar 9.841979e-01 0.000000e+00 0.000000e+00
1
Step 134000
Ar 9.892296e-01 0.000000e+00 0.000000e+00
1
Step 135000
Ar 9.803315e-01 0.000000e+00 0.000000e+00
1
Step 136000
Ar 1.014233e+00 0.000000e+00 0.000000e+00
1
Step 137000
Ar 1.013762e+00 0.000000e+00 0.000000e+00
1
Step 138000
Ar 1.012506e+00 0.000000e+00 0.000000e+00
1
Step 139000
Ar 1.010674e+00 0.000000e+00 0.000000e+00
1
Step 140000
Ar 1.007186e+00 0.000000e+00 0.000000e+00
1
Step 141000
Ar 9.652048e-01 0.000000e+00 0.000000e+00
1
Step 142000
Ar 9.692795e-01 0.000000e+00 0.000000e+00
1
Step 143000
Ar 9.652900e-01 0.000000e+00 0.000000e+00
1
Step 144000
Ar 9.696691e-01 0.000000e+00 0.000000e+00
1
Step 145000
Ar 9.676146e-01 0.000000e+00 0.000000e+00
1
Step 146000
Ar 9.551406e-01 0.000000e+00 0.000000e+00
1
Step 147000
Ar 9.511056e-01 0.000000e+00 0.000000e+00
1
Step 148000
Ar 9.551760e-01 0.000000e+00 0.000000e+00
1
Step 149000
Ar 9.467838e-01 0.000000e+00 0.000000e+00
1
Step 150000
Ar 9.531226e-01 0.000000e+00 0.000000e+00
1
Step 151000
Ar 1.029880e+00 0.000000e+00 0.000000e+00
1
Step 152000
Ar 1.042104e+00 0.000000e+00 0.000000e+00
1
Step 153000
Ar 1.035681e+00 0.000000e+00 0.000000e+00
1
Step 154000
Ar 1.036319e+00 0.000000e+00 0.000000e+00
1
Step 155000
Ar 1.034812e+00 0.000000e+00 0.000000e+00
1
Step 156000
Ar 1.048554e+00 0.000000e+00 0.000000e+00
1
Step 157000
Ar 1.044596e+00 0.000000e+00 0.000000e+00
1
Step 158000
Ar 1.049141e+00 0.000000e+00 0.000000e+00
1
Step 159000
Ar 1.047578e+00 0.000000e+00 0.000000e+00
1
Step 160000
Ar 1.026905e+00 0.000000e+00 0.000000e+00
1
Step 161000
Ar 9.908124e-01 0.000000e+00 0.000000e+00
1
Step 162000
Ar 9.897558e-01 0.000000e+00 0.000000e+00
1
Step 163000
Ar 9.951416e-01 0.000000e+00 0.000000e+00
1
Step 164000
Ar 9.930465e-01 0.000000e+00 0.000000e+00
1
Step 165000
Ar 9.919038e-01 0.000000e+00 0.000000e+00
1
Step 166000
Ar 9.429959e-01 0.000000e+00 0.000000e+00
1
Step 167000
Ar 9.437561e-01 0.000000e+00 0.000000e+00
1
Step 168000
Ar 9.405475e-01 0.000000e+00 0.000000e+00
1
Step 169000
Ar 9.434138e-01 0.000000e+00 0.000000e+00
1
Step 170000
Ar 9.446139e-01 0.000000e+00 0.000000e+00
1
Step 171000
Ar 9.329374e-01 0.000000e+00 0.000000e+00
1
Step 172000
Ar 9.305264e-01 0.000000e+00 0.000000e+00
1
Step 173000
Ar 9.347831e-01 0.000000e+00 0.000000e+00
1
Step 174000
Ar 9.346122e-01 0.000000e+00 0.000000e+00
1
Step 175000
Ar 9.295939e-01 0.000000e+00 0.000000e+00
1
Step 176000
Ar 1.050229e+00 0.000000e+00 0.000000e+00
1
Step 177000
Ar 1.048106e+00 0.000000e+00 0.000000e+00
1
Step 178000
Ar 1.047614e+00 0.000000e+00 0.000000e+00
1
Step 179000
Ar 1.043472e+00 0.000000e+00 0.000000e+00
1
Step 180000
Ar 1.043247e+00 0.000000e+00 0.000000e+00
1
Step 181000
Ar 1.058955e+00 0.000000e+00 0.000000e+00
1
Step 182000
Ar 1.058122e+00 0.000000e+00 0.000000e+00
1
Step 183000
Ar 1.056897e+00 0.000000e+00 0.000000e+00
1
Step 184000
Ar 1.054411e+00 0.000000e+00 0.000000e+00
1
Step 185000
Ar 1.055422e+00 0.000000e+00 0.000000e+00
1
Step 186000
Ar 1.064161e+00 0.000000e+00 0.000000e+00
1
Step 187000
Ar 1.066243e+00 0.000000e+00 0.000000e+00
1
Step 188000
Ar 1.073650e+00 0.000000e+00 0.000000e+00
1
Step 189000
Ar 1.070741e+00 0.000000e+00 0.000000e+00
1
Step 190000
Ar 1.065552e+00 0.000000e+00 0.000000e+00
1
Step 191000
Ar 9.746318e-01 0.000000e+00 0.000000e+00
1
Step 192000
Ar 9.586394e-01 0.000000e+00 0.000000e+00
1
Step 193000
Ar 9.847875e-01 0.000000e+00 0.000000e+00
1
Step 194000
Ar 9.741833e-01 0.000000e+00 0.000000e+00
1
Step 195000
Ar 9.863323e-01 0.000000e+00 0.000000e+00
1
Step 196000
Ar 9.213420e-01 0.000000e+00 0.000000e+00
1
Step 197000
Ar 9.173798e-01 0.000000e+00 0.000000e+00
1
Step 198000
Ar 1.045264e+00 0.000000e+00 0.000000e+00
1
Step 199000
Ar 1.041417e+00 0.000000e+00 0.000000e+00
1
Step 200000
Ar 1.034168e+00 0.000000e+00 0.000000e+00
1
Step 201000
Ar 1.015398e+00 0.000000e+00 0.000000e+00
1
Step 202000
Ar 1.035627e+00 0.000000e+00 0.000000e+00
1
Step 203000
Ar 9.630837e-01 0.000000e+00 0.000000e+00
1
Step 204000
Ar 9.734399e-01 0.000000e+00 0.000000e+00
1
Step 205000
Ar 9.628925e-01 0.000000e+00 0.000000e+00
1
Step 206000
Ar 9.203938e-01 0.000000e+00 0.000000e+00
1
Step 207000
Ar 9.951005e-01 0.000000e+00 0.000000e+00
1
Step 208000
Ar 1.050915e+00 0.000000e+00 0.000000e+00
1
Step 209000
Ar 1.048314e+00 0.000000e+00 0.000000e+00
1
Step 210000
Ar 1.045824e+00 0.000000e+00 0.000000e+00
1
Step 211000
Ar 1.077034e+00 0.000000e+00 0.000000e+00
1
Step 212000
Ar 1.074226e+00 0.000000e+00 0.000000e+00
1
Step 213000
Ar 1.071588e+00 0.000000e+00 0.000000e+00
1
Step 214000
Ar 1.071103e+00 0.000000e+00 0.000000e+00
1
Step 215000
Ar 1.075453e+00 0.000000e+00 0.000000e+00
1
Step 216000
Ar 1.056410e+00 0.000000e+00 0.000000e+00
1
Step 217000
Ar 1.051420e+00 0.000000e+00 0.000000e+00
1
Step 218000
Ar 1.091039e+00 0.000000e+00 0.000000e+00
1
Step 219000
Ar 1.081121e+00 0.000000e+00 0.000000e+00
1
Step 220000
Ar 1.087358e+00 0.000000e+00 0.000000e+00
1
Step 221000
Ar 1.052938e+00 0.000000e+00 0.000000e+00
1
Step 222000
Ar 1.052866e+00 0.000000e+00 0.000000e+00
1
Step 223000
Ar 1.060938e+00 0.000000e+00 0.000000e+00
1
Step 224000
Ar 1.055469e+00 0.000000e+00 0.000000e+00
1
Step 225000
Ar 1.054502e+00 0.000000e+00 0.000000e+00
1
Step 226000
Ar 8.672296e-01 0.000000e+00 0.000000e+00
1
Step 227000
Ar 1.197619e+00 0.000000e+00 0.000000e+00
1
Step 228000
Ar 9.165468e-01 0.000000e+00 0.000000e+00
1
Step 229000
Ar 9.171833e-01 0.000000e+00 0.000000e+00
1
Step 230000
Ar 9.199269e-01 0.000000e+00 0.000000e+00
1
Step 231000
Ar 9.111663e-01 0.000000e+00 0.000000e+00
1
Step 232000
Ar 9.511697e-01 0.000000e+00 0.000000e+00
1
Step 233000
Ar 9.118520e-01 0.000000e+00 0.000000e+00
1
Step 234000
Ar 9.075717e-01 0.000000e+00 0.000000e+00
1
Step 235000
Ar 9.603490e-01 0.000000e+00 0.000000e+00
1
Step 236000
Ar 1.023892e+00 0.000000e+00 0.000000e+00
1
Step 237000
Ar 9.258638e-01 0.000000e+00 0.000000e+00
1
Step 238000
Ar 9.743087e-01 0.000000e+00 0.000000e+00
1
Step 239000
Ar 1.063452e+00 0.000000e+00 0.000000e+00
1
Step 240000
Ar 1.063019e+00 0.000000e+00 0.000000e+00
1
Step 241000
Ar 9.988466e-01 0.000000e+00 0.000000e+00
1
Step 242000
Ar 1.057770e+00 0.000000e+00 0.000000e+00
1
Step 243000
Ar 9.105095e-01 0.000000e+00 0.000000e+00
1
Step 244000
Ar 9.097065e-01 0.000000e+00 0.000000e+00
1
Step 245000
Ar 9.113363e-01 0.000000e+00 0.000000e+00
1
Step 246000
Ar 1.073242e+00 0.000000e+00 0.000000e+00
1
Step 247000
Ar 1.071143e+00 0.000000e+00 0.000000e+00
1
Step 248000
Ar 1.074762e+00 0.000000e+00 0.000000e+00
1
Step 249000
Ar 1.076607e+00 0.000000e+00 0.000000e+00
1
Step 250000
Ar 1.078682e+00 0.000000e+00 0.000000e+00
1
Step 251000
Ar 1.010647e+00 0.000000e+00 0.000000e+00
1
Step 252000
Ar 9.347237e-01 0.000000e+00 0.000000e+00
1
Step 253000
Ar 9.539833e-01 0.000000e+00 0.000000e+00
1
Step 254000
Ar 9.377677e-01 0.000000e+00 0.000000e+00
1
Step 255000
Ar 9.392586e-01 0.000000e+00 0.000000e+00
1
Step 256000
Ar 9.495762e-01 0.000000e+00 0.000000e+00
1
Step 257000
Ar 9.458037e-01 0.000000e+00 0.000000e+00
1
Step 258000
Ar 9.528779e-01 0.000000e+00 0.000000e+00
1
Step 259000
Ar 9.525074e-01 0.000000e+00 0.000000e+00
1
Step 260000
Ar 9.501863e-01 0.000000e+00 0.000000e+00
1
Step 261000
Ar 9.438326e-01 0.000000e+00 0.000000e+00
1
Step 262000
Ar 9.262189e-01 0.000000e+00 0.000000e+00
1
Step 263000
Ar 9.308789e-01 0.000000e+00 0.000000e+00
1
Step 264000
Ar 9.335112e-01 0.000000e+00 0.000000e+00
1
Step 265000
Ar 9.329471e-01 0.000000e+00 0.000000e+00
1
Step 266000
Ar 9.016810e-01 0.000000e+00 0.000000e+00
1
Step 267000
Ar 9.001526e-01 0.000000e+00 0.000000e+00
1
Step 268000
Ar 9.020031e-01 0.000000e+00 0.000000e+00
1
Step 269000
Ar 9.012145e-01 0.000000e+00 0.000000e+00
1
Step 270000
Ar 9.003754e-01 0.000000e+00 0.000000e+00
1
Step 271000
Ar 1.098577e+00 0.000000e+00 0.000000e+00
1
Step 272000
Ar 1.096017e+00 0.000000e+00 0.000000e+00
1
Step 273000
Ar 1.095521e+00 0.000000e+00 0.000000e+00
1
Step 274000
Ar 1.090223e+00 0.000000e+00 0.000000e+00
1
Step 275000
Ar 1.093108e+00 0.000000e+00 0.000000e+00
1
Step 276000
Ar 1.045044e+00 0.000000e+00 0.000000e+00
1
Step 277000
Ar 9.245271e-01 0.000000e+00 0.000000e+00
1
Step 278000
Ar 6.550291e-01 0.000000e+00 0.000000e+00
1
Step 279000
Ar 1.126589e+00 0.000000e+00 0.000000e+00
1
Step 280000
Ar 1.018374e+00 0.000000e+00 0.000000e+00
1
Step 281000
Ar 1.027181e+00 0.000000e+00 0.000000e+00
1
Step 282000
Ar 1.101951e+00 0.000000e+00 0.000000e+00
1
Step 283000
Ar 1.101155e+00 0.000000e+00 0.000000e+00
1
Step 284000
Ar 1.103493e+00 0.000000e+00 0.000000e+00
1
Step 285000
Ar 1.101246e+00 0.000000e+00 0.000000e+00
1
Step 286000
Ar 1.032064e+00 0.000000e+00 0.000000e+00
1
Step 287000
Ar 1.108128e+00 0.000000e+00 0.000000e+00
1
Step 288000
Ar 9.362540e-01 0.000000e+00 0.000000e+00
1
Step 289000
Ar 9.986324e-01 0.000000e+00 0.000000e+00
1
Step 290000
Ar 9.783439e-01 0.000000e+00 0.000000e+00
1
Step 291000
Ar 9.229015e-01 0.000000e+00 0.000000e+00
1
Step 292000
Ar 9.150400e-01 0.000000e+00 0.000000e+00
1
Step 293000
Ar 1.013849e+00 0.000000e+00 0.000000e+00
1
Step 294000
Ar 7.876419e-01 0.000000e+00 0.000000e+00
1
Step 295000
Ar 9.950965e-01 0.000000e+00 0.000000e+00
1
Step 296000
Ar 8.474587e-01 0.000000e+00 0.000000e+00
1
Step 297000
Ar 9.807740e-01 0.000000e+00 0.000000e+00
1
Step 298000
Ar 1.108539e+00 0.000000e+00 0.000000e+00
1
Step 299000
Ar 9.171866e-01 0.000000e+00 0.000000e+00
1
Step 300000
Ar 1.110008e+00 0.000000e+00 0.000000e+00
1
Step 301000
Ar 9.825155e-01 0.000000e+00 0.000000e+00
1
Step 302000
Ar 1.034909e+00 0.000000e+00 0.000000e+00
1
Step 303000
Ar 9.153394e-01 0.000000e+00 0.000000e+00
1
Step 304000
Ar 1.070793e+00 0.000000e+00 0.000000e+00
1
Step 305000
Ar 8.884657e-01 0.000000e+00 0.000000e+00
1
Step 306000
Ar 1.007894e+00 0.000000e+00 0.000000e+00
1
Step 307000
Ar 8.780619e-01 0.000000e+00 0.000000e+00
1
Step 308000
Ar 1.003957e+00 0.000000e+00 0.000000e+00
1
Step 309000
Ar 9.697943e-01 0.000000e+00 0.000000e+00
1
Step 310000
Ar 9.276382e-01 0.000000e+00 0.000000e+00
1
Step 311000
Ar 9.577186e-01 0.000000e+00 0.000000e+00
1
Step 312000
Ar 1.067746e+00 0.000000e+00 0.000000e+00
1
Step 313000
Ar 1.074859e+00 0.000000e+00 0.000000e+00
1
Step 314000
Ar 9.153038e-01 0.000000e+00 0.000000e+00
1
Step 315000
Ar 9.187511e-01 0.000000e+00 0.000000e+00
1
Step 316000
Ar 1.082509e+00 0.000000e+00 0.000000e+00
1
Step 317000
Ar 1.011602e+00 0.000000e+00 0.000000e+00
1
Step 318000
Ar 9.979246e-01 0.000000e+00 0.000000e+00
1
Step 319000
Ar 9.090142e-01 0.000000e+00 0.000000e+00
1
Step 320000
Ar 9.029074e-01 0.000000e+00 0.000000e+00
1
Step 321000
Ar 1.068653e+00 0.000000e+00 0.000000e+00
1
Step 322000
Ar 9.818972e-01 0.000000e+00 0.000000e+00
1
Step 323000
Ar 9.110076e-01 0.000000e+00 0.000000e+00
1
Step 324000
Ar 9.129980e-01 0.000000e+00 0.000000e+00
1
Step 325000
Ar 8.785632e-01 0.000000e+00 0.000000e+00
1
Step 326000
Ar 1.071804e+00 0.000000e+00 0.000000e+00
1
Step 327000
Ar 1.055442e+00 0.000000e+00 0.000000e+00
1
Step 328000
Ar 9.688000e-01 0.000000e+00 0.000000e+00
1
Step 329000
Ar 1.015451e+00 0.000000e+00 0.000000e+00
1
Step 330000
Ar 1.027608e+00 0.000000e+00 0.000000e+00
1
Step 331000
Ar 1.008110e+00 0.000000e+00 0.000000e+00
1
Step 332000
Ar 1.022259e+00 0.000000e+00 0.000000e+00
1
Step 333000
Ar 8.868461e-01 0.000000e+00 0.000000e+00
1
Step 334000
Ar 9.173001e-01 0.000000e+00 0.000000e+00
1
Step 335000
Ar 1.055020e+00 0.000000e+00 0.000000e+00
1
Step 336000
Ar 8.729559e-01 0.000000e+00 0.000000e+00
1
Step 337000
Ar 1.010808e+00 0.000000e+00 0.000000e+00
1
Step 338000
Ar 1.009791e+00 0.000000e+00 0.000000e+00
1
Step 339000
Ar 7.807105e-01 0.000000e+00 0.000000e+00
1
Step 340000
Ar 9.316754e-01 0.000000e+00 0.000000e+00
1
Step 341000
Ar 6.854936e-01 0.000000e+00 0.000000e+00
1
Step 342000
Ar 9.150297e-01 0.000000e+00 0.000000e+00
1
Step 343000
Ar 8.375827e-01 0.000000e+00 0.000000e+00
1
Step 344000
Ar 1.013743e+00 0.000000e+00 0.000000e+00
1
Step 345000
Ar 8.926368e-01 0.000000e+00 0.000000e+00
1
Step 346000
Ar 7.208570e-01 0.000000e+00 0.000000e+00
1
Step 347000
Ar 8.405892e-01 0.000000e+00 0.000000e+00
1
Step 348000
Ar 9.126180e-01 0.000000e+00 0.000000e+00
1
Step 349000
Ar 9.118183e-01 0.000000e+00 0.000000e+00
1
Step 350000
Ar 9.126433e-01 0.000000e+00 0.000000e+00
1
Step 351000
Ar 8.638818e-01 0.000000e+00 0.000000e+00
1
Step 352000
Ar 8.671521e-01 0.000000e+00 0.000000e+00
1
Step 353000
Ar 8.678276e-01 0.000000e+00 0.000000e+00
1
Step 354000
Ar 8.714949e-01 0.000000e+00 0.000000e+00
1
Step 355000
Ar 1.038573e+00 0.000000e+00 0.000000e+00
1
Step 356000
Ar 1.071095e+00 0.000000e+00 0.000000e+00
1
Step 357000
Ar 1.066462e+00 0.000000e+00 0.000000e+00
1
Step 358000
Ar 1.020212e+00 0.000000e+00 0.000000e+00
1
Step 359000
Ar 1.186836e+00 0.000000e+00 0.000000e+00
1
Step 360000
Ar 9.050236e-01 0.000000e+00 0.000000e+00
1
Step 361000
Ar 9.380759e-01 0.000000e+00 0.000000e+00
1
Step 362000
Ar 8.867902e-01 0.000000e+00 0.000000e+00
1
Step 363000
Ar 8.701827e-01 0.000000e+00 0.000000e+00
1
Step 364000
Ar 8.718820e-01 0.000000e+00 0.000000e+00
1
Step 365000
Ar 8.661235e-01 0.000000e+00 0.000000e+00
1
Step 366000
Ar 8.866966e-01 0.000000e+00 0.000000e+00
1
Step 367000
Ar 7.919888e-01 0.000000e+00 0.000000e+00
1
Step 368000
Ar 8.842827e-01 0.000000e+00 0.000000e+00
1
Step 369000
Ar 8.833890e-01 0.000000e+00 0.000000e+00
1
Step 370000
Ar 8.805800e-01 0.000000e+00 0.000000e+00
1
Step 371000
Ar 1.197126e+00 0.000000e+00 0.000000e+00
1
Step 372000
Ar 9.325752e-01 0.000000e+00 0.000000e+00
1
Step 373000
Ar 1.049825e+00 0.000000e+00 0.000000e+00
1
Step 374000
Ar 9.635221e-01 0.000000e+00 0.000000e+00
1
Step 375000
Ar 1.117915e+00 0.000000e+00 0.000000e+00
1
Step 376000
Ar 9.970133e-01 0.000000e+00 0.000000e+00
1
Step 377000
Ar 1.055672e+00 0.000000e+00 0.000000e+00
1
Step 378000
Ar 8.909246e-01 0.000000e+00 0.000000e+00
1
Step 379000
Ar 9.100479e-01 0.000000e+00 0.000000e+00
1
Step 380000
Ar 1.039364e+00 0.000000e+00 0.000000e+00
1
Step 381000
Ar 8.365265e-01 0.000000e+00 0.000000e+00
1
Step 382000
Ar 1.101047e+00 0.000000e+00 0.000000e+00
1
Step 383000
Ar 1.118686e+00 0.000000e+00 0.000000e+00
1
Step 384000
Ar 8.295138e-01 0.000000e+00 0.000000e+00
1
Step 385000
Ar 1.016548e+00 0.000000e+00 0.000000e+00
1
Step 386000
Ar 8.949524e-01 0.000000e+00 0.000000e+00
1
Step 387000
Ar 8.893164e-01 0.000000e+00 0.000000e+00
1
Step 388000
Ar 8.921757e-01 0.000000e+00 0.000000e+00
1
Step 389000
Ar 1.008600e+00 0.000000e+00 0.000000e+00
1
Step 390000
Ar 1.138633e+00 0.000000e+00 0.000000e+00
1
Step 391000
Ar 1.009870e+00 0.000000e+00 0.000000e+00
1
Step 392000
Ar 1.126699e+00 0.000000e+00 0.000000e+00
1
Step 393000
Ar 1.027045e+00 0.000000e+00 0.000000e+00
1
Step 394000
Ar 1.031015e+00 0.000000e+00 0.000000e+00
1
Step 395000
Ar 8.425782e-01 0.000000e+00 0.000000e+00
1
Step 396000
Ar 8.700327e-01 0.000000e+00 0.000000e+00
1
Step 397000
Ar 7.425440e-01 0.000000e+00 0.000000e+00
1
Step 398000
Ar 8.972875e-01 0.000000e+00 0.000000e+00
1
Step 399000
Ar 1.010335e+00 0.000000e+00 0.000000e+00
1
Step 400000
Ar 9.371844e-01 0.000000e+00 0.000000e+00
1
Step 401000
Ar 1.074176e+00 0.000000e+00 0.000000e+00
1
Step 402000
Ar 1.060552e+00 0.000000e+00 0.000000e+00
1
Step 403000
Ar 1.037145e+00 0.000000e+00 0.000000e+00
1
Step 404000
Ar 9.574215e-01 0.000000e+00 0.000000e+00
1
Step 405000
Ar 8.978507e-01 0.000000e+00 0.000000e+00
1
Step 406000
Ar 9.334998e-01 0.000000e+00 0.000000e+00
1
Step 407000
Ar 1.008129e+00 0.000000e+00 0.000000e+00
1
Step 408000
Ar 1.006724e+00 0.000000e+00 0.000000e+00
1
Step 409000
Ar 1.034551e+00 0.000000e+00 0.000000e+00
1
Step 410000
Ar 8.590172e-01 0.000000e+00 0.000000e+00
1
Step 411000
Ar 1.128102e+00 0.000000e+00 0.000000e+00
1
Step 412000
Ar 1.016262e+00 0.000000e+00 0.000000e+00
1
Step 413000
Ar 9.534476e-01 0.000000e+00 0.000000e+00
1
Step 414000
Ar 1.083563e+00 0.000000e+00 0.000000e+00
1
Step 415000
Ar 1.004055e+00 0.000000e+00 0.000000e+00
1
Step 416000
Ar 1.125641e+00 0.000000e+00 0.000000e+00
1
Step 417000
Ar 8.358742e-01 0.000000e+00 0.000000e+00
1
Step 418000
Ar 1.079647e+00 0.000000e+00 0.000000e+00
1
Step 419000
Ar 9.876540e-01 0.000000e+00 0.000000e+00
1
Step 420000
Ar 1.105687e+00 0.000000e+00 0.000000e+00
1
Step 421000
Ar 1.021014e+00 0.000000e+00 0.000000e+00
1
Step 422000
Ar 8.904997e-01 0.000000e+00 0.000000e+00
1
Step 423000
Ar 8.870093e-01 0.000000e+00 0.000000e+00
1
Step 424000
Ar 1.072375e+00 0.000000e+00 0.000000e+00
1
Step 425000
Ar 1.068969e+00 0.000000e+00 0.000000e+00
1
Step 426000
Ar 1.124591e+00 0.000000e+00 0.000000e+00
1
Step 427000
Ar 1.082161e+00 0.000000e+00 0.000000e+00
1
Step 428000
Ar 1.076415e+00 0.000000e+00 0.000000e+00
1
Step 429000
Ar 1.079314e+00 0.000000e+00 0.000000e+00
1
Step 430000
Ar 1.072096e+00 0.000000e+00 0.000000e+00
1
Step 431000
Ar 1.123887e+00 0.000000e+00 0.000000e+00
1
Step 432000
Ar 1.127426e+00 0.000000e+00 0.000000e+00
1
Step 433000
Ar 1.123720e+00 0.000000e+00 0.000000e+00
1
Step 434000
Ar 1.124649e+00 0.000000e+00 0.000000e+00
1
Step 435000
Ar 1.115267e+00 0.000000e+00 0.000000e+00
1
Step 436000
Ar 9.000821e-01 0.000000e+00 0.000000e+00
1
Step 437000
Ar 1.156779e+00 0.000000e+00 0.000000e+00
1
Step 438000
Ar 9.567697e-01 0.000000e+00 0.000000e+00
1
Step 439000
Ar 1.041290e+00 0.000000e+00 0.000000e+00
1
Step 440000
Ar 8.726989e-01 0.000000e+00 0.000000e+00
1
Step 441000
Ar 1.148055e+00 0.000000e+00 0.000000e+00
1
Step 442000
Ar 9.872733e-01 0.000000e+00 0.000000e+00
1
Step 443000
Ar 8.519620e-01 0.000000e+00 0.000000e+00
1
Step 444000
Ar 8.124987e-01 0.000000e+00 0.000000e+00
1
Step 445000
Ar 9.698689e-01 0.000000e+00 0.000000e+00
1
Step 446000
Ar 1.108750e+00 0.000000e+00 0.000000e+00
1
Step 447000
Ar 9.962288e-01 0.000000e+00 0.000000e+00
1
Step 448000
Ar 9.733620e-01 0.000000e+00 0.000000e+00
1
Step 449000
Ar 9.867375e-01 0.000000e+00 0.000000e+00
1
Step 450000
Ar 9.981716e-01 0.000000e+00 0.000000e+00
1
Step 451000
Ar 1.130551e+00 0.000000e+00 0.000000e+00
1
Step 452000
Ar 1.085736e+00 0.000000e+00 0.000000e+00
1
Step 453000
Ar 1.160690e+00 0.000000e+00 0.000000e+00
1
Step 454000
Ar 1.081226e+00 0.000000e+00 0.000000e+00
1
Step 455000
Ar 9.803075e-01 0.000000e+00 0.000000e+00
1
Step 456000
Ar 8.847508e-01 0.000000e+00 0.000000e+00
1
Step 457000
Ar 6.780424e-01 0.000000e+00 0.000000e+00
1
Step 458000
Ar 8.947888e-01 0.000000e+00 0.000000e+00
1
Step 459000
Ar 1.022427e+00 0.000000e+00 0.000000e+00
1
Step 460000
Ar 8.914562e-01 0.000000e+00 0.000000e+00
1
Step 461000
Ar 1.074069e+00 0.000000e+00 0.000000e+00
1
Step 462000
Ar 1.011627e+00 0.000000e+00 0.000000e+00
1
Step 463000
Ar 6.671271e-01 0.000000e+00 0.000000e+00
1
Step 464000
Ar 8.554045e-01 0.000000e+00 0.000000e+00
1
Step 465000
Ar 9.536812e-01 0.000000e+00 0.000000e+00
1
Step 466000
Ar 8.126204e-01 0.000000e+00 0.000000e+00
1
Step 467000
Ar 1.298668e+00 0.000000e+00 0.000000e+00
1
Step 468000
Ar 8.459180e-01 0.000000e+00 0.000000e+00
1
Step 469000
Ar 9.167354e-01 0.000000e+00 0.000000e+00
1
Step 470000
Ar 1.186689e+00 0.000000e+00 0.000000e+00
1
Step 471000
Ar 1.054399e+00 0.000000e+00 0.000000e+00
1
Step 472000
Ar 1.171682e+00 0.000000e+00 0.000000e+00
1
Step 473000
Ar 1.006121e+00 0.000000e+00 0.000000e+00
1
Step 474000
Ar 8.106161e-01 0.000000e+00 0.000000e+00
1
Step 475000
Ar 7.337708e-01 0.000000e+00 0.000000e+00
1
Step 476000
Ar 1.078297e+00 0.000000e+00 0.000000e+00
1
Step 477000
Ar 1.157175e+00 0.000000e+00 0.000000e+00
1
Step 478000
Ar 1.275062e+00 0.000000e+00 0.000000e+00
1
Step 479000
Ar 8.228053e-01 0.000000e+00 0.000000e+00
1
Step 480000
Ar 9.160742e-01 0.000000e+00 0.000000e+00
1
Step 481000
Ar 8.904485e-01 0.000000e+00 0.000000e+00
1
Step 482000
Ar 1.068251e+00 0.000000e+00 0.000000e+00
1
Step 483000
Ar 9.048646e-01 0.000000e+00 0.000000e+00
1
Step 484000
Ar 9.506895e-01 0.000000e+00 0.000000e+00
1
Step 485000
Ar 1.136254e+00 0.000000e+00 0.000000e+00
1
Step 486000
Ar 9.208223e-01 0.000000e+00 0.000000e+00
1
Step 487000
Ar 1.012376e+00 0.000000e+00 0.000000e+00
1
Step 488000
Ar 1.036446e+00 0.000000e+00 0.000000e+00
1
Step 489000
Ar 8.204842e-01 0.000000e+00 0.000000e+00
1
Step 490000
Ar 9.751893e-01 0.000000e+00 0.000000e+00
1
Step 491000
Ar 9.648050e-01 0.000000e+00 0.000000e+00
1
Step 492000
Ar 9.596350e-01 0.000000e+00 0.000000e+00
1
Step 493000
Ar 9.690735e-01 0.000000e+00 0.000000e+00
1
Step 494000
Ar 9.694438e-01 0.000000e+00 0.000000e+00
1
Step 495000
Ar 9.645371e-01 0.000000e+00 0.000000e+00
1
Step 496000
Ar 1.078186e+00 0.000000e+00 0.000000e+00
1
Step 497000
Ar 1.043878e+00 0.000000e+00 0.000000e+00
1
Step 498000
Ar 1.089407e+00 0.000000e+00 0.000000e+00
1
Step 499000
Ar 1.019121e+00 0.000000e+00 0.000000e+00
1
Step 500000
Ar 1.141603e+00 0.000000e+00 0.000000e+00
1
Step 501000
Ar 1.024772e+00 0.000000e+00 0.000000e+00
1
Step 502000
Ar 8.921546e-01 0.000000e+00 0.000000e+00
1
Step 503000
Ar 8.118206e-01 0.000000e+00 0.000000e+00
1
Step 504000
Ar 8.466101e-01 0.000000e+00 0.000000e+00
1
Step 505000
Ar 9.097618e-01 0.000000e+00 0.000000e+00
1
Step 506000
Ar 8.853847e-01 0.000000e+00 0.000000e+00
1
Step 507000
Ar 9.232885e-01 0.000000e+00 0.000000e+00
1
Step 508000
Ar 1.216944e+00 0.000000e+00 0.000000e+00
1
Step 509000
Ar 9.199208e-01 0.000000e+00 0.000000e+00
1
Step 510000
Ar 8.601625e-01 0.000000e+00 0.000000e+00
1
Step 511000
Ar 1.110016e+00 0.000000e+00 0.000000e+00
1
Step 512000
Ar 8.364301e-01 0.000000e+00 0.000000e+00
1
Step 513000
Ar 9.360720e-01 0.000000e+00 0.000000e+00
1
Step 514000
Ar 9.633575e-01 0.000000e+00 0.000000e+00
1
Step 515000
Ar 8.717670e-01 0.000000e+00 0.000000e+00
1
Step 516000
Ar 1.039552e+00 0.000000e+00 0.000000e+00
1
Step 517000
Ar 9.457628e-01 0.000000e+00 0.000000e+00
1
Step 518000
Ar 7.748203e-01 0.000000e+00 0.000000e+00
1
Step 519000
Ar 1.025622e+00 0.000000e+00 0.000000e+00
1
Step 520000
Ar 8.728497e-01 0.000000e+00 0.000000e+00
1
Step 521000
Ar 1.105526e+00 0.000000e+00 0.000000e+00
1
Step 522000
Ar 9.740323e-01 0.000000e+00 0.000000e+00
1
Step 523000
Ar 8.457943e-01 0.000000e+00 0.000000e+00
1
Step 524000
Ar 1.016577e+00 0.000000e+00 0.000000e+00
1
Step 525000
Ar 1.048669e+00 0.000000e+00 0.000000e+00
1
Step 526000
Ar 1.126354e+00 0.000000e+00 0.000000e+00
1
Step 527000
Ar 1.149237e+00 0.000000e+00 0.000000e+00
1
Step 528000
Ar 1.150627e+00 0.000000e+00 0.000000e+00
1
Step 529000
Ar 1.152563e+00 0.000000e+00 0.000000e+00
1
Step 530000
Ar 1.151083e+00 0.000000e+00 0.000000e+00
1
Step 531000
Ar 1.000690e+00 0.000000e+00 0.000000e+00
1
Step 532000
Ar 1.047378e+00 0.000000e+00 0.000000e+00
1
Step 533000
Ar 9.981991e-01 0.000000e+00 0.000000e+00
1
Step 534000
Ar 1.157869e+00 0.000000e+00 0.000000e+00
1
Step 535000
Ar 8.491268e-01 0.000000e+00 0.000000e+00
1
Step 536000
Ar 8.357000e-01 0.000000e+00 0.000000e+00
1
Step 537000
Ar 8.269044e-01 0.000000e+00 0.000000e+00
1
Step 538000
Ar 8.341182e-01 0.000000e+00 0.000000e+00
1
Step 539000
Ar 8.338164e-01 0.000000e+00 0.000000e+00
1
Step 540000
Ar 8.339325e-01 0.000000e+00 0.000000e+00
1
Step 541000
Ar 1.096216e+00 0.000000e+00 0.000000e+00
1
Step 542000
Ar 1.019274e+00 0.000000e+00 0.000000e+00
1
Step 543000
Ar 8.548683e-01 0.000000e+00 0.000000e+00
1
Step 544000
Ar 1.150523e+00 0.000000e+00 0.000000e+00
1
Step 545000
Ar 8.243892e-01 0.000000e+00 0.000000e+00
1
Step 546000
Ar 1.179902e+00 0.000000e+00 0.000000e+00
1
Step 547000
Ar 1.083840e+00 0.000000e+00 0.000000e+00
1
Step 548000
Ar 9.519376e-01 0.000000e+00 0.000000e+00
1
Step 549000
Ar 1.037111e+00 0.000000e+00 0.000000e+00
1
Step 550000
Ar 8.754249e-01 0.000000e+00 0.000000e+00
1
Step 551000
Ar 1.131877e+00 0.000000e+00 0.000000e+00
1
Step 552000
Ar 8.379377e-01 0.000000e+00 0.000000e+00
1
Step 553000
Ar 1.146868e+00 0.000000e+00 0.000000e+00
1
Step 554000
Ar 6.966888e-01 0.000000e+00 0.000000e+00
1
Step 555000
Ar 1.182100e+00 0.000000e+00 0.000000e+00
1
Step 556000
Ar 1.004070e+00 0.000000e+00 0.000000e+00
1
Step 557000
Ar 1.083050e+00 0.000000e+00 0.000000e+00
1
Step 558000
Ar 1.333989e+00 0.000000e+00 0.000000e+00
1
Step 559000
Ar 1.232604e+00 0.000000e+00 0.000000e+00
1
Step 560000
Ar 9.853682e-01 0.000000e+00 0.000000e+00
1
Step 561000
Ar 1.057479e+00 0.000000e+00 0.000000e+00
1
Step 562000
Ar 1.095585e+00 0.000000e+00 0.000000e+00
1
Step 563000
Ar 1.241318e+00 0.000000e+00 0.000000e+00
1
Step 564000
Ar 1.007754e+00 0.000000e+00 0.000000e+00
1
Step 565000
Ar 1.182490e+00 0.000000e+00 0.000000e+00
1
Step 566000
Ar 8.529382e-01 0.000000e+00 0.000000e+00
1
Step 567000
Ar 8.521166e-01 0.000000e+00 0.000000e+00
1
Step 568000
Ar 1.092542e+00 0.000000e+00 0.000000e+00
1
Step 569000
Ar 9.674793e-01 0.000000e+00 0.000000e+00
1
Step 570000
Ar 9.912802e-01 0.000000e+00 0.000000e+00
1
Step 571000
Ar 6.849932e-01 0.000000e+00 0.000000e+00
1
Step 572000
Ar 1.025830e+00 0.000000e+00 0.000000e+00
1
Step 573000
Ar 9.467497e-01 0.000000e+00 0.000000e+00
1
Step 574000
Ar 1.061116e+00 0.000000e+00 0.000000e+00
1
Step 575000
Ar 8.914986e-01 0.000000e+00 0.000000e+00
1
Step 576000
Ar 7.641657e-01 0.000000e+00 0.000000e+00
1
Step 577000
Ar 1.071139e+00 0.000000e+00 0.000000e+00
1
Step 578000
Ar 8.005168e-01 0.000000e+00 0.000000e+00
1
Step 579000
Ar 9.611578e-01 0.000000e+00 0.000000e+00
1
Step 580000
Ar 1.095133e+00 0.000000e+00 0.000000e+00
1
Step 581000
Ar 7.641295e-01 0.000000e+00 0.000000e+00
1
Step 582000
Ar 1.135922e+00 0.000000e+00 0.000000e+00
1
Step 583000
Ar 8.511085e-01 0.000000e+00 0.000000e+00
1
Step 584000
Ar 8.512095e-01 0.000000e+00 0.000000e+00
1
Step 585000
Ar 8.567054e-01 0.000000e+00 0.000000e+00
1
Step 586000
Ar 7.953653e-01 0.000000e+00 0.000000e+00
1
Step 587000
Ar 8.497920e-01 0.000000e+00 0.000000e+00
1
Step 588000
Ar 8.397693e-01 0.000000e+00 0.000000e+00
1
Step 589000
Ar 8.476412e-01 0.000000e+00 0.000000e+00
1
Step 590000
Ar 8.490540e-01 0.000000e+00 0.000000e+00
1
Step 591000
Ar 9.634144e-01 0.000000e+00 0.000000e+00
1
Step 592000
Ar 9.900569e-01 0.000000e+00 0.000000e+00
1
Step 593000
Ar 4.465400e-01 0.000000e+00 0.000000e+00
1
Step 594000
Ar 8.373779e-01 0.000000e+00 0.000000e+00
1
Step 595000
Ar 8.399523e-01 0.000000e+00 0.000000e+00
1
Step 596000
Ar 8.303675e-01 0.000000e+00 0.000000e+00
1
Step 597000
Ar 8.188693e-01 0.000000e+00 0.000000e+00
1
Step 598000
Ar 8.316317e-01 0.000000e+00 0.000000e+00
1
Step 599000
Ar 8.316498e-01 0.000000e+00 0.000000e+00
1
Step 600000
Ar 8.209805e-01 0.000000e+00 0.000000e+00
1
Step 601000
Ar 9.469155e-01 0.000000e+00 0.000000e+00
1
Step 602000
Ar 8.872479e-01 0.000000e+00 0.000000e+00
1
Step 603000
Ar -8.961860e-01 0.000000e+00 0.000000e+00
1
Step 604000
Ar -1.005175e+00 0.000000e+00 0.000000e+00
1
Step 605000
Ar -9.902116e-01 0.000000e+00 0.000000e+00
1
Step 606000
Ar -9.729227e-01 0.000000e+00 0.000000e+00
1
Step 607000
Ar -9.787358e-01 0.000000e+00 0.000000e+00
1
Step 608000
Ar -9.765190e-01 0.000000e+00 0.000000e+00
1
Step 609000
Ar -9.763983e-01 0.000000e+00 0.000000e+00
1
Step 610000
Ar -9.831334e-01 0.000000e+00 0.000000e+00
1
Step 611000
Ar -9.689619e-01 0.000000e+00 0.000000e+00
1
Step 612000
Ar -9.694708e-01 0.000000e+00 0.000000e+00
1
Step 613000
Ar -9.700442e-01 0.000000e+00 0.000000e+00
1
Step 614000
Ar -9.700131e-01 0.000000e+00 0.000000e+00
1
Step 615000
Ar -9.666593e-01 0.000000e+00 0.000000e+00
1
Step 616000
Ar -9.540299e-01 0.000000e+00 0.000000e+00
1
Step 617000
Ar -9.569100e-01 0.000000e+00 0.000000e+00
1
Step 618000
Ar -9.592527e-01 0.000000e+00 0.000000e+00
1
Step 619000
Ar -9.568934e-01 0.000000e+00 0.000000e+00
1
Step 620000
Ar -9.546414e-01 0.000000e+00 0.000000e+00
1
Step 621000
Ar -9.407084e-01 0.000000e+00 0.000000e+00
1
Step 622000
Ar -9.394170e-01 0.000000e+00 0.000000e+00
1
Step 623000
Ar -9.420789e-01 0.000000e+00 0.000000e+00
1
Step 624000
Ar -9.435399e-01 0.000000e+00 0.000000e+00
1
Step 625000
Ar -9.399749e-01 0.000000e+00 0.000000e+00
1
Step 626000
Ar -1.008050e+00 0.000000e+00 0.000000e+00
1
Step 627000
Ar -1.013859e+00 0.000000e+00 0.000000e+00
1
Step 628000
Ar -1.011886e+00 0.000000e+00 0.000000e+00
1
Step 629000
Ar -1.007412e+00 0.000000e+00 0.000000e+00
1
Step 630000
Ar -1.000080e+00 0.000000e+00 0.000000e+00
1
Step 631000
Ar -1.022731e+00 0.000000e+00 0.000000e+00
1
Step 632000
Ar -1.013289e+00 0.000000e+00 0.000000e+00
1
Step 633000
Ar -1.015492e+00 0.000000e+00 0.000000e+00
1
Step 634000
Ar -1.009738e+00 0.000000e+00 0.000000e+00
1
Step 635000
Ar -1.012264e+00 0.000000e+00 0.000000e+00
1
Step 636000
Ar -1.027004e+00 0.000000e+00 0.000000e+00
1
Step 637000
Ar -1.023051e+00 0.000000e+00 0.000000e+00
1
Step 638000
Ar -1.021958e+00 0.000000e+00 0.000000e+00
1
Step 639000
Ar -1.024400e+00 0.000000e+00 0.000000e+00
1
Step 640000
Ar -1.029069e+00 0.000000e+00 0.000000e+00
1
Step 641000
Ar -1.038617e+00 0.000000e+00 0.000000e+00
1
Step 642000
Ar -1.039561e+00 0.000000e+00 0.000000e+00
1
Step 643000
Ar -1.042424e+00 0.000000e+00 0.000000e+00
1
Step 644000
Ar -1.037753e+00 0.000000e+00 0.000000e+00
1
Step 645000
Ar -1.044034e+00 0.000000e+00 0.000000e+00
1
Step 646000
Ar -1.053327e+00 0.000000e+00 0.000000e+00
1
Step 647000
Ar -1.048345e+00 0.000000e+00 0.000000e+00
1
Step 648000
Ar -1.053636e+00 0.000000e+00 0.000000e+00
1
Step 649000
Ar -1.053120e+00 0.000000e+00 0.000000e+00
1
Step 650000
Ar -1.054150e+00 0.000000e+00 0.000000e+00
1
Step 651000
Ar -1.064972e+00 0.000000e+00 0.000000e+00
1
Step 652000
Ar -1.067572e+00 0.000000e+00 0.000000e+00
1
Step 653000
Ar -1.065463e+00 0.000000e+00 0.000000e+00
1
Step 654000