1
Step 120000
Ar 6.450666e-01 0.000000e+00 0.000000e+00
1
Step 121000
Ar 1.158164e+00 0.000000e+00 0.000000e+00
1
Step 122000
Ar 1.042809e+00 0.000000e+00 0.000000e+00
1
Step 123000
Ar 9.271863e-01 0.000000e+00 0.000000e+00
1
Step 124000
Ar 1.217669e+00 0.000000e+00 0.000000e+00
1
Step 125000
Ar 9.578056e-01 0.000000e+00 0.000000e+00
1
Step 126000
Ar 1.155549e+00 0.000000e+00 0.000000e+00
1
Step 127000
Ar 1.144982e+00 0.000000e+00 0.000000e+00
1
Step 128000
Ar 1.240798e+00 0.000000e+00 0.000000e+00
1
Step 129000
Ar 1.033075e+00 0.000000e+00 0.000000e+00
1
Step 130000
Ar 9.914282e-01 0.000000e+00 0.000000e+00
1
Step 131000
Ar 1.133493e+00 0.000000e+00 0.000000e+00
1
Step 132000
Ar 1.032844e+00 0.000000e+00 0.000000e+00
1
Step 133000
Ar 1.007894e+00 0.000000e+00 0.000000e+00
1
Step 134000
Ar 1.141813e+00 0.000000e+00 0.000000e+00
1
Step 135000
Ar 1.057568e+00 0.000000e+00 0.000000e+00
1
Step 136000
Ar 1.087170e+00 0.000000e+00 0.000000e+00
1
Step 137000
Ar 1.134851e+00 0.000000e+00 0.000000e+00
1
Step 138000
Ar 1.179810e+00 0.000000e+00 0.000000e+00
1
Step 139000
Ar 1.086337e+00 0.000000e+00 0.000000e+00
1
Step 140000
Ar 1.182727e+00 0.000000e+00 0.000000e+00
1
Step 141000
Ar 1.066246e+00 0.000000e+00 0.000000e+00
1
Step 142000
Ar 1.090278e+00 0.000000e+00 0.000000e+00
1
Step 143000
Ar 1.087346e+00 0.000000e+00 0.000000e+00
1
Step 144000
Ar 1.079447e+00 0.000000e+00 0.000000e+00
1
Step 145000
Ar 1.079584e+00 0.000000e+00 0.000000e+00
1
Step 146000
Ar 1.096518e+00 0.000000e+00 0.000000e+00
1
Step 147000
Ar 1.139026e+00 0.000000e+00 0.000000e+00
1
Step 148000
Ar 1.163467e+00 0.000000e+00 0.000000e+00
1
Step 149000
Ar 1.115824e+00 0.000000e+00 0.000000e+00
1
Step 150000
Ar 1.133951e+00 0.000000e+00 0.000000e+00
1
Step 151000
Ar 1.144869e+00 0.000000e+00 0.000000e+00
1
Step 152000
Ar 1.164941e+00 0.000000e+00 0.000000e+00
1
Step 153000
Ar 1.168197e+00 0.000000e+00 0.000000e+00
1
Step 154000
Ar 1.152140e+00 0.000000e+00 0.000000e+00
1
Step 155000
Ar 1.162360e+00 0.000000e+00 0.000000e+00
1
Step 156000
Ar 1.151850e+00 0.000000e+00 0.000000e+00
1
Step 157000
Ar 1.145110e+00 0.000000e+00 0.000000e+00
1
Step 158000
Ar 1.151344e+00 0.000000e+00 0.000000e+00
1
Step 159000
Ar 1.147955e+00 0.000000e+00 0.000000e+00
1
Step 160000
Ar 1.152710e+00 0.000000e+00 0.000000e+00
1
Step 161000
Ar 9.811297e-01 0.000000e+00 0.000000e+00
1
Step 162000
Ar 9.730900e-01 0.000000e+00 0.000000e+00
1
Step 163000
Ar 9.745076e-01 0.000000e+00 0.000000e+00
1
Step 164000
Ar 9.744528e-01 0.000000e+00 0.000000e+00
1
Step 165000
Ar 9.672127e-01 0.000000e+00 0.000000e+00
1
Step 166000
Ar 1.143599e+00 0.000000e+00 0.000000e+00
1
Step 167000
Ar 1.112276e+00 0.000000e+00 0.000000e+00
1
Step 168000
Ar 1.125415e+00 0.000000e+00 0.000000e+00
1
Step 169000
Ar 1.112933e+00 0.000000e+00 0.000000e+00
1
Step 170000
Ar 1.099029e+00 0.000000e+00 0.000000e+00
1
Step 171000
Ar 1.123223e+00 0.000000e+00 0.000000e+00
1
Step 172000
Ar 1.120590e+00 0.000000e+00 0.000000e+00
1
Step 173000
Ar 1.114302e+00 0.000000e+00 0.000000e+00
1
Step 174000
Ar 1.117265e+00 0.000000e+00 0.000000e+00
1
Step 175000
Ar 1.119258e+00 0.000000e+00 0.000000e+00
1
Step 176000
Ar 1.070785e+00 0.000000e+00 0.000000e+00
1
Step 177000
Ar 1.072577e+00 0.000000e+00 0.000000e+00
1
Step 178000
Ar 1.066699e+00 0.000000e+00 0.000000e+00
1
Step 179000
Ar 1.068191e+00 0.000000e+00 0.000000e+00
1
Step 180000
Ar 1.067439e+00 0.000000e+00 0.000000e+00
1
Step 181000
Ar 9.140499e-01 0.000000e+00 0.000000e+00
1
Step 182000
Ar 8.212327e-01 0.000000e+00 0.000000e+00
1
Step 183000
Ar 8.694660e-01 0.000000e+00 0.000000e+00
1
Step 184000
Ar 8.041951e-01 0.000000e+00 0.000000e+00
1
Step 185000
Ar 9.190938e-01 0.000000e+00 0.000000e+00
1
Step 186000
Ar 5.310314e-01 0.000000e+00 0.000000e+00
1
Step 187000
Ar 7.866949e-01 0.000000e+00 0.000000e+00
1
Step 188000
Ar 8.921495e-01 0.000000e+00 0.000000e+00
1
Step 189000
Ar 7.814330e-01 0.000000e+00 0.000000e+00
1
Step 190000
Ar 8.663919e-01 0.000000e+00 0.000000e+00
1
Step 191000
Ar 8.400326e-01 0.000000e+00 0.000000e+00
1
Step 192000
Ar 8.058081e-01 0.000000e+00 0.000000e+00
1
Step 193000
Ar 7.690646e-01 0.000000e+00 0.000000e+00
1
Step 194000
Ar 7.522373e-01 0.000000e+00 0.000000e+00
1
Step 195000
Ar 8.200666e-01 0.000000e+00 0.000000e+00
1
Step 196000
Ar 7.909779e-01 0.000000e+00 0.000000e+00
1
Step 197000
Ar 6.360913e-01 0.000000e+00 0.000000e+00
1
Step 198000
Ar 7.990661e-01 0.000000e+00 0.000000e+00
1
Step 199000
Ar 7.255149e-01 0.000000e+00 0.000000e+00
1
Step 200000
Ar 7.773394e-01 0.000000e+00 0.000000e+00
1
Step 201000
Ar 8.925013e-01 0.000000e+00 0.000000e+00
1
Step 202000
Ar 9.003507e-01 0.000000e+00 0.000000e+00
1
Step 203000
Ar 8.876916e-01 0.000000e+00 0.000000e+00
1
Step 204000
Ar 8.909663e-01 0.000000e+00 0.000000e+00
1
Step 205000
Ar 8.888551e-01 0.000000e+00 0.000000e+00
1
Step 206000
Ar 8.994871e-01 0.000000e+00 0.000000e+00
1
Step 207000
Ar 8.983416e-01 0.000000e+00 0.000000e+00
1
Step 208000
Ar 9.005169e-01 0.000000e+00 0.000000e+00
1
Step 209000
Ar 9.069435e-01 0.000000e+00 0.000000e+00
1
Step 210000
Ar 9.092746e-01 0.000000e+00 0.000000e+00
1
Step 211000
Ar 8.799737e-01 0.000000e+00 0.000000e+00
1
Step 212000
Ar 8.801441e-01 0.000000e+00 0.000000e+00
1
Step 213000
Ar 8.755547e-01 0.000000e+00 0.000000e+00
1
Step 214000
Ar 8.828274e-01 0.000000e+00 0.000000e+00
1
Step 215000
Ar 8.988363e-01 0.000000e+00 0.000000e+00
1
Step 216000
Ar 7.133248e-01 0.000000e+00 0.000000e+00
1
Step 217000
Ar 7.312092e-01 0.000000e+00 0.000000e+00
1
Step 218000
Ar 7.456733e-01 0.000000e+00 0.000000e+00
1
Step 219000
Ar 7.659354e-01 0.000000e+00 0.000000e+00
1
Step 220000
Ar 6.689254e-01 0.000000e+00 0.000000e+00
1
Step 221000
Ar 6.082954e-01 0.000000e+00 0.000000e+00
1
Step 222000
Ar 6.094564e-01 0.000000e+00 0.000000e+00
1
Step 223000
Ar 6.400163e-01 0.000000e+00 0.000000e+00
1
Step 224000
Ar 5.466654e-01 0.000000e+00 0.000000e+00
1
Step 225000
Ar 6.171927e-01 0.000000e+00 0.000000e+00
1
Step 226000
Ar 3.354846e-01 0.000000e+00 0.000000e+00
1
Step 227000
Ar 4.990204e-01 0.000000e+00 0.000000e+00
1
Step 228000
Ar 5.354686e-01 0.000000e+00 0.000000e+00
1
Step 229000
Ar 4.797929e-01 0.000000e+00 0.000000e+00
1
Step 230000
Ar 1.775223e-01 0.000000e+00 0.000000e+00
1
Step 231000
Ar 7.428541e-01 0.000000e+00 0.000000e+00
1
Step 232000
Ar 7.494641e-01 0.000000e+00 0.000000e+00
1
Step 233000
Ar 7.411585e-01 0.000000e+00 0.000000e+00
1
Step 234000
Ar 7.052359e-01 0.000000e+00 0.000000e+00
1
Step 235000
Ar 7.290423e-01 0.000000e+00 0.000000e+00
1
Step 236000
Ar 5.407299e-01 0.000000e+00 0.000000e+00
1
Step 237000
Ar 5.956384e-01 0.000000e+00 0.000000e+00
1
Step 238000
Ar 5.243714e-01 0.000000e+00 0.000000e+00
1
Step 239000
Ar 5.332280e-01 0.000000e+00 0.000000e+00
1
Step 240000
Ar 5.709319e-01 0.000000e+00 0.000000e+00
1
Step 241000
Ar 5.501597e-01 0.000000e+00 0.000000e+00
1
Step 242000
Ar 5.485871e-01 0.000000e+00 0.000000e+00
1
Step 243000
Ar 5.163006e-01 0.000000e+00 0.000000e+00
1
Step 244000
Ar 5.349223e-01 0.000000e+00 0.000000e+00
1
Step 245000
Ar 5.533581e-01 0.000000e+00 0.000000e+00
1
Step 246000
Ar 5.994889e-01 0.000000e+00 0.000000e+00
1
Step 247000
Ar 6.025436e-01 0.000000e+00 0.000000e+00
1
Step 248000
Ar 5.832055e-01 0.000000e+00 0.000000e+00
1
Step 249000
Ar 5.856844e-01 0.000000e+00 0.000000e+00
1
Step 250000
Ar 5.978425e-01 0.000000e+00 0.000000e+00
1
Step 251000
Ar 8.724457e-01 0.000000e+00 0.000000e+00
1
Step 252000
Ar 8.800497e-01 0.000000e+00 0.000000e+00
1
Step 253000
Ar 8.518300e-01 0.000000e+00 0.000000e+00
1
Step 254000
Ar 8.340430e-01 0.000000e+00 0.000000e+00
1
Step 255000
Ar 8.388529e-01 0.000000e+00 0.000000e+00
1
Step 256000
Ar 8.538123e-01 0.000000e+00 0.000000e+00
1
Step 257000
Ar 8.528280e-01 0.000000e+00 0.000000e+00
1
Step 258000
Ar 8.514842e-01 0.000000e+00 0.000000e+00
1
Step 259000
Ar 8.478586e-01 0.000000e+00 0.000000e+00
1
Step 260000
Ar 8.521874e-01 0.000000e+00 0.000000e+00
1
Step 261000
Ar 8.790487e-01 0.000000e+00 0.000000e+00
1
Step 262000
Ar 8.773487e-01 0.000000e+00 0.000000e+00
1
Step 263000
Ar 8.741790e-01 0.000000e+00 0.000000e+00
1
Step 264000
Ar 8.806020e-01 0.000000e+00 0.000000e+00
1
Step 265000
Ar 8.766072e-01 0.000000e+00 0.000000e+00
1
Step 266000
Ar 7.999057e-01 0.000000e+00 0.000000e+00
1
Step 267000
Ar 8.027199e-01 0.000000e+00 0.000000e+00
1
Step 268000
Ar 7.905519e-01 0.000000e+00 0.000000e+00
1
Step 269000
Ar 7.934503e-01 0.000000e+00 0.000000e+00
1
Step 270000
Ar 7.992884e-01 0.000000e+00 0.000000e+00
1
Step 271000
Ar 7.878312e-01 0.000000e+00 0.000000e+00
1
Step 272000
Ar 7.904258e-01 0.000000e+00 0.000000e+00
1
Step 273000
Ar 7.880727e-01 0.000000e+00 0.000000e+00
1
Step 274000
Ar 7.868925e-01 0.000000e+00 0.000000e+00
1
Step 275000
Ar 7.869178e-01 0.000000e+00 0.000000e+00
1
Step 276000
Ar 6.324614e-01 0.000000e+00 0.000000e+00
1
Step 277000
Ar 6.390318e-01 0.000000e+00 0.000000e+00
1
Step 278000
Ar 6.418571e-01 0.000000e+00 0.000000e+00
1
Step 279000
Ar 6.282906e-01 0.000000e+00 0.000000e+00
1
Step 280000
Ar 6.481368e-01 0.000000e+00 0.000000e+00
1
Step 281000
Ar 7.508527e-01 0.000000e+00 0.000000e+00
1
Step 282000
Ar 7.592867e-01 0.000000e+00 0.000000e+00
1
Step 283000
Ar 7.574588e-01 0.000000e+00 0.000000e+00
1
Step 284000
Ar 7.566004e-01 0.000000e+00 0.000000e+00
1
Step 285000
Ar 7.685819e-01 0.000000e+00 0.000000e+00
1
Step 286000
Ar 7.114978e-01 0.000000e+00 0.000000e+00
1
Step 287000
Ar 7.086288e-01 0.000000e+00 0.000000e+00
1
Step 288000
Ar 7.056431e-01 0.000000e+00 0.000000e+00
1
Step 289000
Ar 7.088115e-01 0.000000e+00 0.000000e+00
1
Step 290000
Ar 6.874450e-01 0.000000e+00 0.000000e+00
1
Step 291000
Ar 7.105598e-01 0.000000e+00 0.000000e+00
1
Step 292000
Ar 7.102818e-01 0.000000e+00 0.000000e+00
1
Step 293000
Ar 7.100597e-01 0.000000e+00 0.000000e+00
1
Step 294000
Ar 7.035182e-01 0.000000e+00 0.000000e+00
1
Step 295000
Ar 7.108175e-01 0.000000e+00 0.000000e+00
1
Step 296000
Ar 6.349029e-01 0.000000e+00 0.000000e+00
1
Step 297000
Ar 6.329688e-01 0.000000e+00 0.000000e+00
1
Step 298000
Ar 6.326805e-01 0.000000e+00 0.000000e+00
1
Step 299000
Ar 6.308975e-01 0.000000e+00 0.000000e+00
1
Step 300000
Ar 6.280140e-01 0.000000e+00 0.000000e+00
1
Step 301000
Ar -1.010834e+00 0.000000e+00 0.000000e+00
1
Step 302000
Ar -1.044026e+00 0.000000e+00 0.000000e+00
1
Step 303000
Ar -6.827203e-01 0.000000e+00 0.000000e+00
1
Step 304000
Ar -9.406314e-01 0.000000e+00 0.000000e+00
1
Step 305000
Ar -8.116083e-01 0.000000e+00 0.000000e+00
1
Step 306000
Ar -1.095029e+00 0.000000e+00 0.000000e+00
1
Step 307000
Ar -1.096564e+00 0.000000e+00 0.000000e+00
1
Step 308000
Ar -9.463275e-01 0.000000e+00 0.000000e+00
1
Step 309000
Ar -1.215524e+00 0.000000e+00 0.000000e+00
1
Step 310000
Ar -1.100263e+00 0.000000e+00 0.000000e+00
1
Step 311000
Ar -9.495568e-01 0.000000e+00 0.000000e+00
1
Step 312000
Ar -1.024119e+00 0.000000e+00 0.000000e+00
1
Step 313000
Ar -9.999108e-01 0.000000e+00 0.000000e+00
1
Step 314000
Ar -9.621585e-01 0.000000e+00 0.000000e+00
1
Step 315000
Ar -9.772574e-01 0.000000e+00 0.000000e+00
1
Step 316000
Ar -9.024899e-01 0.000000e+00 0.000000e+00
1
Step 317000
Ar -9.191953e-01 0.000000e+00 0.000000e+00
1
Step 318000
Ar -9.663220e-01 0.000000e+00 0.000000e+00
1
Step 319000
Ar -8.857092e-01 0.000000e+00 0.000000e+00
1
Step 320000
Ar -9.025671e-01 0.000000e+00 0.000000e+00
1
Step 321000
Ar -8.614492e-01 0.000000e+00 0.000000e+00
1
Step 322000
Ar -8.393870e-01 0.000000e+00 0.000000e+00
1
Step 323000
Ar -8.437023e-01 0.000000e+00 0.000000e+00
1
Step 324000
Ar -8.404899e-01 0.000000e+00 0.000000e+00
1
Step 325000
Ar -8.390046e-01 0.000000e+00 0.000000e+00
1
Step 326000
Ar -8.226143e-01 0.000000e+00 0.000000e+00
1
Step 327000
Ar -8.270469e-01 0.000000e+00 0.000000e+00
1
Step 328000
Ar -8.284805e-01 0.000000e+00 0.000000e+00
1
Step 329000
Ar -8.285079e-01 0.000000e+00 0.000000e+00
1
Step 330000
Ar -8.239969e-01 0.000000e+00 0.000000e+00
1
Step 331000
Ar -9.595426e-01 0.000000e+00 0.000000e+00
1
Step 332000
Ar -9.394218e-01 0.000000e+00 0.000000e+00
1
Step 333000
Ar -9.605101e-01 0.000000e+00 0.000000e+00
1
Step 334000
Ar -9.585991e-01 0.000000e+00 0.000000e+00
1
Step 335000
Ar -9.212048e-01 0.000000e+00 0.000000e+00
1
Step 336000
Ar -8.709005e-01 0.000000e+00 0.000000e+00
1
Step 337000
Ar -8.791387e-01 0.000000e+00 0.000000e+00
1
Step 338000
Ar -8.602118e-01 0.000000e+00 0.000000e+00
1
Step 339000
Ar -8.840603e-01 0.000000e+00 0.000000e+00
1
Step 340000
Ar -8.697480e-01 0.000000e+00 0.000000e+00
1
Step 341000
Ar -1.145789e+00 0.000000e+00 0.000000e+00
1
Step 342000
Ar -1.124233e+00 0.000000e+00 0.000000e+00
1
Step 343000
Ar -1.160854e+00 0.000000e+00 0.000000e+00
1
Step 344000
Ar -1.298466e+00 0.000000e+00 0.000000e+00
1
Step 345000
Ar -1.162332e+00 0.000000e+00 0.000000e+00
1
Step 346000
Ar -1.131638e+00 0.000000e+00 0.000000e+00
1
Step 347000
Ar -1.117290e+00 0.000000e+00 0.000000e+00
1
Step 348000
Ar -1.114677e+00 0.000000e+00 0.000000e+00
1
Step 349000
Ar -1.140289e+00 0.000000e+00 0.000000e+00
1
Step 350000
Ar -1.148600e+00 0.000000e+00 0.000000e+00
1
Step 351000
Ar -1.202824e+00 0.000000e+00 0.000000e+00
1
Step 352000
Ar -1.276973e+00 0.000000e+00 0.000000e+00
1
Step 353000
Ar -1.189655e+00 0.000000e+00 0.000000e+00
1
Step 354000
Ar -1.216639e+00 0.000000e+00 0.000000e+00
1
Step 355000
Ar -1.291119e+00 0.000000e+00 0.000000e+00
1
Step 356000
Ar -1.348041e+00 0.000000e+00 0.000000e+00
1
Step 357000
Ar -1.328429e+00 0.000000e+00 0.000000e+00
1
Step 358000
Ar -1.310199e+00 0.000000e+00 0.000000e+00
1
Step 359000
Ar -1.360252e+00 0.000000e+00 0.000000e+00
1
Step 360000
Ar -1.316452e+00 0.000000e+00 0.000000e+00
1
Step 361000
Ar -1.344402e+00 0.000000e+00 0.000000e+00
1
Step 362000
Ar -1.331821e+00 0.000000e+00 0.000000e+00
1
Step 363000
Ar -1.371744e+00 0.000000e+00 0.000000e+00
1
Step 364000
Ar -1.368763e+00 0.000000e+00 0.000000e+00
1
Step 365000
Ar -1.346164e+00 0.000000e+00 0.000000e+00
1
Step 366000
Ar -1.332346e+00 0.000000e+00 0.000000e+00
1
Step 367000
Ar -1.327181e+00 0.000000e+00 0.000000e+00
1
Step 368000
Ar -1.323478e+00 0.000000e+00 0.000000e+00
1
Step 369000
Ar -1.329219e+00 0.000000e+00 0.000000e+00
1
Step 370000
Ar -1.330666e+00 0.000000e+00 0.000000e+00
1
Step 371000
Ar -1.121823e+00 0.000000e+00 0.000000e+00
1
Step 372000
Ar -1.109695e+00 0.000000e+00 0.000000e+00
1
Step 373000
Ar -1.134368e+00 0.000000e+00 0.000000e+00
1
Step 374000
Ar -1.133953e+00 0.000000e+00 0.000000e+00
1
Step 375000
Ar -1.116647e+00 0.000000e+00 0.000000e+00
1
Step 376000
Ar -9.965303e-01 0.000000e+00 0.000000e+00
1
Step 377000
Ar -1.029259e+00 0.000000e+00 0.000000e+00
1
Step 378000
Ar -9.897087e-01 0.000000e+00 0.000000e+00
1
Step 379000
Ar -1.032113e+00 0.000000e+00 0.000000e+00
1
Step 380000
Ar -9.945183e-01 0.000000e+00 0.000000e+00
1
Step 381000
Ar -1.057939e+00 0.000000e+00 0.000000e+00
1
Step 382000
Ar -1.071276e+00 0.000000e+00 0.000000e+00
1
Step 383000
Ar -1.066838e+00 0.000000e+00 0.000000e+00
1
Step 384000
Ar -1.018134e+00 0.000000e+00 0.000000e+00
1
Step 385000
Ar -1.060378e+00 0.000000e+00 0.000000e+00
1
Step 386000
Ar -1.074017e+00 0.000000e+00 0.000000e+00
1
Step 387000
Ar -1.079431e+00 0.000000e+00 0.000000e+00
1
Step 388000
Ar -1.068786e+00 0.000000e+00 0.000000e+00
1
Step 389000
Ar -1.082656e+00 0.000000e+00 0.000000e+00
1
Step 390000
Ar -1.076049e+00 0.000000e+00 0.000000e+00
1
Step 391000
Ar -1.135902e+00 0.000000e+00 0.000000e+00
1
Step 392000
Ar -1.131528e+00 0.000000e+00 0.000000e+00
1
Step 393000
Ar -1.130358e+00 0.000000e+00 0.000000e+00
1
Step 394000
Ar -1.136448e+00 0.000000e+00 0.000000e+00
1
Step 395000
Ar -1.136845e+00 0.000000e+00 0.000000e+00
1
Step 396000
Ar -1.045907e+00 0.000000e+00 0.000000e+00
1
Step 397000
Ar -1.052777e+00 0.000000e+00 0.000000e+00
1
Step 398000
Ar -1.019342e+00 0.000000e+00 0.000000e+00
1
Step 399000
Ar -1.007331e+00 0.000000e+00 0.000000e+00
1
Step 400000
Ar -1.007449e+00 0.000000e+00 0.000000e+00
1
Step 401000
Ar -1.018518e+00 0.000000e+00 0.000000e+00
1
Step 402000
Ar -1.032478e+00 0.000000e+00 0.000000e+00
1
Step 403000
Ar -1.034497e+00 0.000000e+00 0.000000e+00
1
Step 404000
Ar -1.046611e+00 0.000000e+00 0.000000e+00
1
Step 405000
Ar -1.046659e+00 0.000000e+00 0.000000e+00
1
Step 406000
Ar -1.023329e+00 0.000000e+00 0.000000e+00
1
Step 407000
Ar -1.021943e+00 0.000000e+00 0.000000e+00
1
Step 408000
Ar -1.026114e+00 0.000000e+00 0.000000e+00
1
Step 409000
Ar -1.028275e+00 0.000000e+00 0.000000e+00
1
Step 410000
Ar -1.034319e+00 0.000000e+00 0.000000e+00
1
Step 411000
Ar -7.812890e-01 0.000000e+00 0.000000e+00
1
Step 412000
Ar -7.948562e-01 0.000000e+00 0.000000e+00
1
Step 413000
Ar -6.988903e-01 0.000000e+00 0.000000e+00
1
Step 414000
Ar -7.196747e-01 0.000000e+00 0.000000e+00
1
Step 415000
Ar -7.704705e-01 0.000000e+00 0.000000e+00
1
Step 416000
Ar -7.040665e-01 0.000000e+00 0.000000e+00
1
Step 417000
Ar -5.845943e-01 0.000000e+00 0.000000e+00
1
Step 418000
Ar -7.077681e-01 0.000000e+00 0.000000e+00
1
Step 419000
Ar -7.517507e-01 0.000000e+00 0.000000e+00
1
Step 420000
Ar -7.298476e-01 0.000000e+00 0.000000e+00
1
Step 421000
Ar -6.598886e-01 0.000000e+00 0.000000e+00
1
Step 422000
Ar -6.948469e-01 0.000000e+00 0.000000e+00
1
Step 423000
Ar -6.569334e-01 0.000000e+00 0.000000e+00
1
Step 424000
Ar -6.889198e-01 0.000000e+00 0.000000e+00
1
Step 425000
Ar -6.784694e-01 0.000000e+00 0.000000e+00
1
Step 426000
Ar -7.156079e-01 0.000000e+00 0.000000e+00
1
Step 427000
Ar -7.142052e-01 0.000000e+00 0.000000e+00
1
Step 428000
Ar -7.105914e-01 0.000000e+00 0.000000e+00
1
Step 429000
Ar -7.075708e-01 0.000000e+00 0.000000e+00
1
Step 430000
Ar -7.103739e-01 0.000000e+00 0.000000e+00
1
Step 431000
Ar -6.925980e-01 0.000000e+00 0.000000e+00
1
Step 432000
Ar -6.945979e-01 0.000000e+00 0.000000e+00
1
Step 433000
Ar -6.927015e-01 0.000000e+00 0.000000e+00
1
Step 434000
Ar -6.937167e-01 0.000000e+00 0.000000e+00
1
Step 435000
Ar -6.868167e-01 0.000000e+00 0.000000e+00
1
Step 436000
Ar -1.019182e+00 0.000000e+00 0.000000e+00
1
Step 437000
Ar -1.018408e+00 0.000000e+00 0.000000e+00
1
Step 438000
Ar -1.021666e+00 0.000000e+00 0.000000e+00
1
Step 439000
Ar -1.020831e+00 0.000000e+00 0.000000e+00
1
Step 440000
Ar -1.018838e+00 0.000000e+00 0.000000e+00
1
Step 441000
Ar -9.585579e-01 0.000000e+00 0.000000e+00
1
Step 442000
Ar -9.575373e-01 0.000000e+00 0.000000e+00
1
Step 443000
Ar -9.353490e-01 0.000000e+00 0.000000e+00
1
Step 444000
Ar -9.543530e-01 0.000000e+00 0.000000e+00
1
Step 445000
Ar -9.622762e-01 0.000000e+00 0.000000e+00
1
Step 446000
Ar -9.839224e-01 0.000000e+00 0.000000e+00
1
Step 447000
Ar -9.877273e-01 0.000000e+00 0.000000e+00
1
Step 448000
Ar -9.126541e-01 0.000000e+00 0.000000e+00
1
Step 449000
Ar -9.703056e-01 0.000000e+00 0.000000e+00
1
Step 450000
Ar -9.435921e-01 0.000000e+00 0.000000e+00
1
Step 451000
Ar -9.304287e-01 0.000000e+00 0.000000e+00
1
Step 452000
Ar -9.309058e-01 0.000000e+00 0.000000e+00
1
Step 453000
Ar -9.318180e-01 0.000000e+00 0.000000e+00
1
Step 454000
Ar -9.335000e-01 0.000000e+00 0.000000e+00
1
Step 455000
Ar -9.331028e-01 0.000000e+00 0.000000e+00
1
Step 456000
Ar -9.134861e-01 0.000000e+00 0.000000e+00
1
Step 457000
Ar -8.888114e-01 0.000000e+00 0.000000e+00
1
Step 458000
Ar -8.787469e-01 0.000000e+00 0.000000e+00
1
Step 459000
Ar -8.843310e-01 0.000000e+00 0.000000e+00
1
Step 460000
Ar -8.879610e-01 0.000000e+00 0.000000e+00
1
Step 461000
Ar -9.156313e-01 0.000000e+00 0.000000e+00
1
Step 462000
Ar -7.539312e-01 0.000000e+00 0.000000e+00
1
Step 463000
Ar -7.600840e-01 0.000000e+00 0.000000e+00
1
Step 464000
Ar -7.468294e-01 0.000000e+00 0.000000e+00
1
Step 465000
Ar -7.520939e-01 0.000000e+00 0.000000e+00
1
Step 466000
Ar -7.631826e-01 0.000000e+00 0.000000e+00
1
Step 467000
Ar -7.432570e-01 0.000000e+00 0.000000e+00
1
Step 468000
Ar -7.440300e-01 0.000000e+00 0.000000e+00
1
Step 469000
Ar -7.421620e-01 0.000000e+00 0.000000e+00
1
Step 470000
Ar -7.412725e-01 0.000000e+00 0.000000e+00
1
Step 471000
Ar -7.921822e-01 0.000000e+00 0.000000e+00
1
Step 472000
Ar -7.835482e-01 0.000000e+00 0.000000e+00
1
Step 473000
Ar -7.806385e-01 0.000000e+00 0.000000e+00
1
Step 474000
Ar -7.991480e-01 0.000000e+00 0.000000e+00
1
Step 475000
Ar -7.948928e-01 0.000000e+00 0.000000e+00
1
Step 476000
Ar -7.819903e-01 0.000000e+00 0.000000e+00
1
Step 477000
Ar -7.824314e-01 0.000000e+00 0.000000e+00
1
Step 478000
Ar -7.800847e-01 0.000000e+00 0.000000e+00
1
Step 479000
Ar -7.848276e-01 0.000000e+00 0.000000e+00
1
Step 480000
Ar -7.819885e-01 0.000000e+00 0.000000e+00
1
Step 481000
Ar -7.008626e-01 0.000000e+00 0.000000e+00
1
Step 482000
Ar -7.043371e-01 0.000000e+00 0.000000e+00
1
Step 483000
Ar -6.987327e-01 0.000000e+00 0.000000e+00
1
Step 484000
Ar -6.999337e-01 0.000000e+00 0.000000e+00
1
Step 485000
Ar -6.966701e-01 0.000000e+00 0.000000e+00
1
Step 486000
Ar -1.126933e+00 0.000000e+00 0.000000e+00
1
Step 487000
Ar -1.093138e+00 0.000000e+00 0.000000e+00
1
Step 488000
Ar -1.088891e+00 0.000000e+00 0.000000e+00
1
Step 489000
Ar -1.089954e+00 0.000000e+00 0.000000e+00
1
Step 490000
Ar -1.086038e+00 0.000000e+00 0.000000e+00
1
Step 491000
Ar -1.128529e+00 0.000000e+00 0.000000e+00
1
Step 492000
Ar -1.270965e+00 0.000000e+00 0.000000e+00
1
Step 493000
Ar -1.231625e+00 0.000000e+00 0.000000e+00
1
Step 494000
Ar -1.202728e+00 0.000000e+00 0.000000e+00
1
Step 495000
Ar -1.216834e+00 0.000000e+00 0.000000e+00
1
Step 496000
Ar -1.261633e+00 0.000000e+00 0.000000e+00
1
Step 497000
Ar -1.271720e+00 0.000000e+00 0.000000e+00
1
Step 498000
Ar -1.245675e+00 0.000000e+00 0.000000e+00
1
Step 499000
Ar -1.247855e+00 0.000000e+00 0.000000e+00
1
Step 500000
Ar -1.241584e+00 0.000000e+00 0.000000e+00
1
Step 501000
Ar -1.199654e+00 0.000000e+00 0.000000e+00
1
Step 502000
Ar -1.175415e+00 0.000000e+00 0.000000e+00
1
Step 503000
Ar -1.189812e+00 0.000000e+00 0.000000e+00
1
Step 504000
Ar -1.172491e+00 0.000000e+00 0.000000e+00
1
Step 505000
Ar -1.186779e+00 0.000000e+00 0.000000e+00
1
Step 506000
Ar -1.172967e+00 0.000000e+00 0.000000e+00
1
Step 507000
Ar -1.181847e+00 0.000000e+00 0.000000e+00
1
Step 508000
Ar -1.170486e+00 0.000000e+00 0.000000e+00
1
Step 509000
Ar -1.175209e+00 0.000000e+00 0.000000e+00
1
Step 510000
Ar -1.177028e+00 0.000000e+00 0.000000e+00
1
Step 511000
Ar -9.540033e-01 0.000000e+00 0.000000e+00
1
Step 512000
Ar -9.528324e-01 0.000000e+00 0.000000e+00
1
Step 513000
Ar -9.533978e-01 0.000000e+00 0.000000e+00
1
Step 514000
Ar -9.503191e-01 0.000000e+00 0.000000e+00
1
Step 515000
Ar -1.197152e+00 0.000000e+00 0.000000e+00
1
Step 516000
Ar -1.228000e+00 0.000000e+00 0.000000e+00
1
Step 517000
Ar -1.231714e+00 0.000000e+00 0.000000e+00
1
Step 518000
Ar -1.229057e+00 0.000000e+00 0.000000e+00
1
Step 519000
Ar -1.227752e+00 0.000000e+00 0.000000e+00
1
Step 520000
Ar -1.206555e+00 0.000000e+00 0.000000e+00
1
Step 521000
Ar -1.259032e+00 0.000000e+00 0.000000e+00
1
Step 522000
Ar -1.277176e+00 0.000000e+00 0.000000e+00
1
Step 523000
Ar -1.281387e+00 0.000000e+00 0.000000e+00
1
Step 524000
Ar -1.252394e+00 0.000000e+00 0.000000e+00
1
Step 525000
Ar -1.259309e+00 0.000000e+00 0.000000e+00
1
Step 526000
Ar -1.270634e+00 0.000000e+00 0.000000e+00
1
Step 527000
Ar -1.276004e+00 0.000000e+00 0.000000e+00
1
Step 528000
Ar -1.278836e+00 0.000000e+00 0.000000e+00
1
Step 529000
Ar -1.272561e+00 0.000000e+00 0.000000e+00
1
Step 530000
Ar -1.279358e+00 0.000000e+00 0.000000e+00
1
Step 531000
Ar 4.495581e-01 0.000000e+00 0.000000e+00
1
Step 532000
Ar 5.288323e-01 0.000000e+00 0.000000e+00
1
Step 533000
Ar 4.250426e-01 0.000000e+00 0.000000e+00
1
Step 534000
Ar 2.320374e-01 0.000000e+00 0.000000e+00
1
Step 535000
Ar 5.351302e-01 0.000000e+00 0.000000e+00
1
Step 536000
Ar -5.009488e-01 0.000000e+00 0.000000e+00
1
Step 537000
Ar -4.941752e-01 0.000000e+00 0.000000e+00
1
Step 538000
Ar -4.088122e-01 0.000000e+00 0.000000e+00
1
Step 539000
Ar -6.276193e-01 0.000000e+00 0.000000e+00
1
Step 540000
Ar -6.052655e-01 0.000000e+00 0.000000e+00
1
Step 541000
Ar -6.589856e-01 0.000000e+00 0.000000e+00
1
Step 542000
Ar -6.222946e-01 0.000000e+00 0.000000e+00
1
Step 543000
Ar -6.636053e-01 0.000000e+00 0.000000e+00
1
Step 544000
Ar -6.215510e-01 0.000000e+00 0.000000e+00
1
Step 545000
Ar -6.606938e-01 0.000000e+00 0.000000e+00
1
Step 546000
Ar -6.483963e-01 0.000000e+00 0.000000e+00
1
Step 547000
Ar -6.374903e-01 0.000000e+00 0.000000e+00
1
Step 548000
Ar -6.475990e-01 0.000000e+00 0.000000e+00
1
Step 549000
Ar -6.217917e-01 0.000000e+00 0.000000e+00
1
Step 550000
Ar -6.496191e-01 0.000000e+00 0.000000e+00
1
Step 551000
Ar -5.345831e-01 0.000000e+00 0.000000e+00
1
Step 552000
Ar -5.171434e-01 0.000000e+00 0.000000e+00
1
Step 553000
Ar -5.912148e-01 0.000000e+00 0.000000e+00
1
Step 554000
Ar -5.477256e-01 0.000000e+00 0.000000e+00
1
Step 555000
Ar -5.606321e-01 0.000000e+00 0.000000e+00
1
Step 556000
Ar -5.891697e-01 0.000000e+00 0.000000e+00
1
Step 557000
Ar -5.892265e-01 0.000000e+00 0.000000e+00
1
Step 558000
Ar -5.793022e-01 0.000000e+00 0.000000e+00
1
Step 559000
Ar -5.813410e-01 0.000000e+00 0.000000e+00
1
Step 560000
Ar -5.801754e-01 0.000000e+00 0.000000e+00
1
Step 561000
Ar -6.243573e-01 0.000000e+00 0.000000e+00
1
Step 562000
Ar -6.194096e-01 0.000000e+00 0.000000e+00
1
Step 563000
Ar -6.279609e-01 0.000000e+00 0.000000e+00
1
Step 564000
Ar -6.187968e-01 0.000000e+00 0.000000e+00
1
Step 565000
Ar -6.275104e-01 0.000000e+00 0.000000e+00
1
Step 566000
Ar -6.370118e-01 0.000000e+00 0.000000e+00
1
Step 567000
Ar -6.397110e-01 0.000000e+00 0.000000e+00
1
Step 568000
Ar -6.397879e-01 0.000000e+00 0.000000e+00
1
Step 569000
Ar -6.370919e-01 0.000000e+00 0.000000e+00
1
Step 570000
Ar -6.363775e-01 0.000000e+00 0.000000e+00
1
Step 571000
Ar -6.674484e-01 0.000000e+00 0.000000e+00
1
Step 572000
Ar -6.685250e-01 0.000000e+00 0.000000e+00
1
Step 573000
Ar -6.705091e-01 0.000000e+00 0.000000e+00
1
Step 574000
Ar -6.703852e-01 0.000000e+00 0.000000e+00
1
Step 575000
Ar -5.035324e-01 0.000000e+00 0.000000e+00
1
Step 576000
Ar -4.514678e-01 0.000000e+00 0.000000e+00
1
Step 577000
Ar -3.970121e-01 0.000000e+00 0.000000e+00
1
Step 578000
Ar -4.878354e-01 0.000000e+00 0.000000e+00
1
Step 579000
Ar -4.627335e-01 0.000000e+00 0.000000e+00
1
Step 580000
Ar -4.834744e-01 0.000000e+00 0.000000e+00
1
Step 581000
Ar -5.903061e-01 0.000000e+00 0.000000e+00
1
Step 582000
Ar -5.911254e-01 0.000000e+00 0.000000e+00
1
Step 583000
Ar -5.930071e-01 0.000000e+00 0.000000e+00
1
Step 584000
Ar -5.969871e-01 0.000000e+00 0.000000e+00
1
Step 585000
Ar -5.932329e-01 0.000000e+00 0.000000e+00
1
Step 586000
Ar -6.139645e-01 0.000000e+00 0.000000e+00
1
Step 587000
Ar -6.132963e-01 0.000000e+00 0.000000e+00
1
Step 588000
Ar -6.172546e-01 0.000000e+00 0.000000e+00
1
Step 589000
Ar -6.158152e-01 0.000000e+00 0.000000e+00
1
Step 590000
Ar -6.157234e-01 0.000000e+00 0.000000e+00
1
Step 591000
Ar -5.177555e-01 0.000000e+00 0.000000e+00
1
Step 592000
Ar -5.402356e-01 0.000000e+00 0.000000e+00
1
Step 593000
Ar -5.318883e-01 0.000000e+00 0.000000e+00
1
Step 594000
Ar -5.201252e-01 0.000000e+00 0.000000e+00
1
Step 595000
Ar -5.408239e-01 0.000000e+00 0.000000e+00
1
Step 596000
Ar -5.245312e-01 0.000000e+00 0.000000e+00
1
Step 597000
Ar -5.162700e-01 0.000000e+00 0.000000e+00
1
Step 598000
Ar -5.211188e-01 0.000000e+00 0.000000e+00
1
Step 599000
Ar -5.200215e-01 0.000000e+00 0.000000e+00
1
Step 600000
Ar -5.202760e-01 0.000000e+00 0.000000e+00
1
Step 601000
Ar -1.303573e+00 0.000000e+00 0.000000e+00
1
Step 602000
Ar -1.300940e+00 0.000000e+00 0.000000e+00
1
Step 603000
Ar -1.301481e+00 0.000000e+00 0.000000e+00
1
Step 604000
Ar -1.302401e+00 0.000000e+00 0.000000e+00
1
Step 605000
Ar -1.306346e+00 0.000000e+00 0.000000e+00
1
Step 606000
Ar -8.527930e-01 0.000000e+00 0.000000e+00
1
Step 607000
Ar -8.540661e-01 0.000000e+00 0.000000e+00
1
Step 608000
Ar -8.517209e-01 0.000000e+00 0.000000e+00
1
Step 609000
Ar -8.519757e-01 0.000000e+00 0.000000e+00
1
Step 610000
Ar -8.471647e-01 0.000000e+00 0.000000e+00
1
Step 611000
Ar -9.884581e-01 0.000000e+00 0.000000e+00
1
Step 612000
Ar -9.670548e-01 0.000000e+00 0.000000e+00
1
Step 613000
Ar -9.514989e-01 0.000000e+00 0.000000e+00
1
Step 614000
Ar -9.537297e-01 0.000000e+00 0.000000e+00
1
Step 615000
Ar -9.545690e-01 0.000000e+00 0.000000e+00
1
Step 616000
Ar -1.273168e+00 0.000000e+00 0.000000e+00
1
Step 617000
Ar -1.268274e+00 0.000000e+00 0.000000e+00
1
Step 618000
Ar -1.271297e+00 0.000000e+00 0.000000e+00
1
Step 619000
Ar -1.106345e+00 0.000000e+00 0.000000e+00
1
Step 620000
Ar -1.168622e+00 0.000000e+00 0.000000e+00
1
Step 621000
Ar -1.268691e+00 0.000000e+00 0.000000e+00
1
Step 622000
Ar -1.230793e+00 0.000000e+00 0.000000e+00
1
Step 623000
Ar -1.228201e+00 0.000000e+00 0.000000e+00
1
Step 624000
Ar -1.227372e+00 0.000000e+00 0.000000e+00
1
Step 625000
Ar -1.233254e+00 0.000000e+00 0.000000e+00
1
Step 626000
Ar -1.361973e+00 0.000000e+00 0.000000e+00
1
Step 627000
Ar -1.377849e+00 0.000000e+00 0.000000e+00
1
Step 628000
Ar -1.390062e+00 0.000000e+00 0.000000e+00
1
Step 629000
Ar -1.404589e+00 0.000000e+00 0.000000e+00
1
Step 630000
Ar -1.374152e+00 0.000000e+00 0.000000e+00
1
Step 631000
Ar 1.247878e-01 0.000000e+00 0.000000e+00
1
Step 632000
Ar -4.528790e-01 0.000000e+00 0.000000e+00
1
Step 633000
Ar -4.610389e-01 0.000000e+00 0.000000e+00
1
Step 634000
Ar -4.260785e-01 0.000000e+00 0.000000e+00
1
Step 635000
Ar -4.420640e-01 0.000000e+00 0.000000e+00
1
Step 636000
Ar -4.554365e-01 0.000000e+00 0.000000e+00
1
Step 637000
Ar -4.662115e-01 0.000000e+00 0.000000e+00
1
Step 638000
Ar -4.720654e-01 0.000000e+00 0.000000e+00
1
Step 639000
Ar -4.692183e-01 0.000000e+00 0.000000e+00
1
Step 640000
Ar -4.640516e-01 0.000000e+00 0.000000e+00
1
Step 641000
Ar -6.700346e-01 0.000000e+00 0.000000e+00
1
Step 642000
Ar 6.524752e-02 0.000000e+00 0.000000e+00
1
Step 643000
Ar -3.760365e-01 0.000000e+00 0.000000e+00
1
Step 644000
Ar 6.952432e-02 0.000000e+00 0.000000e+00
1
Step 645000
Ar -4.109877e-01 0.000000e+00 0.000000e+00
1
Step 646000
Ar -3.930586e-01 0.000000e+00 0.000000e+00
1
Step 647000
Ar -3.005593e-01 0.000000e+00 0.000000e+00
1
Step 648000
Ar -3.396900e-01 0.000000e+00 0.000000e+00
1
Step 649000