1
Step 120000
Ar 1.009685e+00 0.000000e+00 0.000000e+00
1
Step 121000
Ar 1.004226e+00 0.000000e+00 0.000000e+00
1
Step 122000
Ar 9.964973e-01 0.000000e+00 0.000000e+00
1
Step 123000
Ar 9.996203e-01 0.000000e+00 0.000000e+00
1
Step 124000
Ar 1.017044e+00 0.000000e+00 0.000000e+00
1
Step 125000
Ar 9.866705e-01 0.000000e+00 0.000000e+00
1
Step 126000
Ar 9.667067e-01 0.000000e+00 0.000000e+00
1
Step 127000
Ar 9.976490e-01 0.000000e+00 0.000000e+00
1
Step 128000
Ar 9.999532e-01 0.000000e+00 0.000000e+00
1
Step 129000
Ar 1.004357e+00 0.000000e+00 0.000000e+00
1
Step 130000
Ar 1.007236e+00 0.000000e+00 0.000000e+00
1
Step 131000
Ar 1.022220e+00 0.000000e+00 0.000000e+00
1
Step 132000
Ar 1.029235e+00 0.000000e+00 0.000000e+00
1
Step 133000
Ar 1.026774e+00 0.000000e+00 0.000000e+00
1
Step 134000
Ar 1.028989e+00 0.000000e+00 0.000000e+00
1
Step 135000
Ar 1.038788e+00 0.000000e+00 0.000000e+00
1
Step 136000
Ar 9.746146e-01 0.000000e+00 0.000000e+00
1
Step 137000
Ar 9.719195e-01 0.000000e+00 0.000000e+00
1
Step 138000
Ar 9.743665e-01 0.000000e+00 0.000000e+00
1
Step 139000
Ar 9.727517e-01 0.000000e+00 0.000000e+00
1
Step 140000
Ar 9.733820e-01 0.000000e+00 0.000000e+00
1
Step 141000
Ar 1.050439e+00 0.000000e+00 0.000000e+00
1
Step 142000
Ar 1.056583e+00 0.000000e+00 0.000000e+00
1
Step 143000
Ar 1.051036e+00 0.000000e+00 0.000000e+00
1
Step 144000
Ar 1.051263e+00 0.000000e+00 0.000000e+00
1
Step 145000
Ar 1.050881e+00 0.000000e+00 0.000000e+00
1
Step 146000
Ar 1.056115e+00 0.000000e+00 0.000000e+00
1
Step 147000
Ar 1.065974e+00 0.000000e+00 0.000000e+00
1
Step 148000
Ar 1.065936e+00 0.000000e+00 0.000000e+00
1
Step 149000
Ar 1.063062e+00 0.000000e+00 0.000000e+00
1
Step 150000
Ar 1.062010e+00 0.000000e+00 0.000000e+00
1
Step 151000
Ar 1.076456e+00 0.000000e+00 0.000000e+00
1
Step 152000
Ar 9.786873e-01 0.000000e+00 0.000000e+00
1
Step 153000
Ar 9.426917e-01 0.000000e+00 0.000000e+00
1
Step 154000
Ar 9.367720e-01 0.000000e+00 0.000000e+00
1
Step 155000
Ar 9.371775e-01 0.000000e+00 0.000000e+00
1
Step 156000
Ar 9.391382e-01 0.000000e+00 0.000000e+00
1
Step 157000
Ar 9.354557e-01 0.000000e+00 0.000000e+00
1
Step 158000
Ar 9.334747e-01 0.000000e+00 0.000000e+00
1
Step 159000
Ar 1.045049e+00 0.000000e+00 0.000000e+00
1
Step 160000
Ar 1.064881e+00 0.000000e+00 0.000000e+00
1
Step 161000
Ar 1.043033e+00 0.000000e+00 0.000000e+00
1
Step 162000
Ar 9.271864e-01 0.000000e+00 0.000000e+00
1
Step 163000
Ar 9.239597e-01 0.000000e+00 0.000000e+00
1
Step 164000
Ar 9.236925e-01 0.000000e+00 0.000000e+00
1
Step 165000
Ar 1.000170e+00 0.000000e+00 0.000000e+00
1
Step 166000
Ar 8.771633e-01 0.000000e+00 0.000000e+00
1
Step 167000
Ar 1.068480e+00 0.000000e+00 0.000000e+00
1
Step 168000
Ar 1.164728e+00 0.000000e+00 0.000000e+00
1
Step 169000
Ar 9.664601e-01 0.000000e+00 0.000000e+00
1
Step 170000
Ar 9.058426e-01 0.000000e+00 0.000000e+00
1
Step 171000
Ar 9.079292e-01 0.000000e+00 0.000000e+00
1
Step 172000
Ar 9.106161e-01 0.000000e+00 0.000000e+00
1
Step 173000
Ar 9.093080e-01 0.000000e+00 0.000000e+00
1
Step 174000
Ar 9.092745e-01 0.000000e+00 0.000000e+00
1
Step 175000
Ar 9.104407e-01 0.000000e+00 0.000000e+00
1
Step 176000
Ar 9.018404e-01 0.000000e+00 0.000000e+00
1
Step 177000
Ar 8.971517e-01 0.000000e+00 0.000000e+00
1
Step 178000
Ar 9.109836e-01 0.000000e+00 0.000000e+00
1
Step 179000
Ar 1.030201e+00 0.000000e+00 0.000000e+00
1
Step 180000
Ar 8.631271e-01 0.000000e+00 0.000000e+00
1
Step 181000
Ar 8.916636e-01 0.000000e+00 0.000000e+00
1
Step 182000
Ar 9.664869e-01 0.000000e+00 0.000000e+00
1
Step 183000
Ar 9.981822e-01 0.000000e+00 0.000000e+00
1
Step 184000
Ar 8.622806e-01 0.000000e+00 0.000000e+00
1
Step 185000
Ar 9.812763e-01 0.000000e+00 0.000000e+00
1
Step 186000
Ar 9.200688e-01 0.000000e+00 0.000000e+00
1
Step 187000
Ar 8.292992e-01 0.000000e+00 0.000000e+00
1
Step 188000
Ar 9.690196e-01 0.000000e+00 0.000000e+00
1
Step 189000
Ar 8.814705e-01 0.000000e+00 0.000000e+00
1
Step 190000
Ar 9.823476e-01 0.000000e+00 0.000000e+00
1
Step 191000
Ar 9.680158e-01 0.000000e+00 0.000000e+00
1
Step 192000
Ar 1.057438e+00 0.000000e+00 0.000000e+00
1
Step 193000
Ar 1.088875e+00 0.000000e+00 0.000000e+00
1
Step 194000
Ar 1.086249e+00 0.000000e+00 0.000000e+00
1
Step 195000
Ar 1.088676e+00 0.000000e+00 0.000000e+00
1
Step 196000
Ar 1.090890e+00 0.000000e+00 0.000000e+00
1
Step 197000
Ar 8.268941e-01 0.000000e+00 0.000000e+00
1
Step 198000
Ar 1.056901e+00 0.000000e+00 0.000000e+00
1
Step 199000
Ar 1.048418e+00 0.000000e+00 0.000000e+00
1
Step 200000
Ar 1.061131e+00 0.000000e+00 0.000000e+00
1
Step 201000
Ar 9.236943e-01 0.000000e+00 0.000000e+00
1
Step 202000
Ar 9.816754e-01 0.000000e+00 0.000000e+00
1
Step 203000
Ar 1.003149e+00 0.000000e+00 0.000000e+00
1
Step 204000
Ar 1.015110e+00 0.000000e+00 0.000000e+00
1
Step 205000
Ar 9.925246e-01 0.000000e+00 0.000000e+00
1
Step 206000
Ar 1.092369e+00 0.000000e+00 0.000000e+00
1
Step 207000
Ar 1.088889e+00 0.000000e+00 0.000000e+00
1
Step 208000
Ar 8.311294e-01 0.000000e+00 0.000000e+00
1
Step 209000
Ar 1.026146e+00 0.000000e+00 0.000000e+00
1
Step 210000
Ar 8.689577e-01 0.000000e+00 0.000000e+00
1
Step 211000
Ar 1.183982e+00 0.000000e+00 0.000000e+00
1
Step 212000
Ar 9.062353e-01 0.000000e+00 0.000000e+00
1
Step 213000
Ar 9.799565e-01 0.000000e+00 0.000000e+00
1
Step 214000
Ar 8.107842e-01 0.000000e+00 0.000000e+00
1
Step 215000
Ar 9.790092e-01 0.000000e+00 0.000000e+00
1
Step 216000
Ar 9.456466e-01 0.000000e+00 0.000000e+00
1
Step 217000
Ar 9.504522e-01 0.000000e+00 0.000000e+00
1
Step 218000
Ar 9.461539e-01 0.000000e+00 0.000000e+00
1
Step 219000
Ar 1.108103e+00 0.000000e+00 0.000000e+00
1
Step 220000
Ar 8.817150e-01 0.000000e+00 0.000000e+00
1
Step 221000
Ar 8.818781e-01 0.000000e+00 0.000000e+00
1
Step 222000
Ar 8.880598e-01 0.000000e+00 0.000000e+00
1
Step 223000
Ar 9.785354e-01 0.000000e+00 0.000000e+00
1
Step 224000
Ar 9.801102e-01 0.000000e+00 0.000000e+00
1
Step 225000
Ar 9.163439e-01 0.000000e+00 0.000000e+00
1
Step 226000
Ar 1.016767e+00 0.000000e+00 0.000000e+00
1
Step 227000
Ar 1.061325e+00 0.000000e+00 0.000000e+00
1
Step 228000
Ar 9.838682e-01 0.000000e+00 0.000000e+00
1
Step 229000
Ar 1.082810e+00 0.000000e+00 0.000000e+00
1
Step 230000
Ar 1.114384e+00 0.000000e+00 0.000000e+00
1
Step 231000
Ar 8.957149e-01 0.000000e+00 0.000000e+00
1
Step 232000
Ar 9.018120e-01 0.000000e+00 0.000000e+00
1
Step 233000
Ar 1.115995e+00 0.000000e+00 0.000000e+00
1
Step 234000
Ar 1.118245e+00 0.000000e+00 0.000000e+00
1
Step 235000
Ar 1.118193e+00 0.000000e+00 0.000000e+00
1
Step 236000
Ar 1.113543e+00 0.000000e+00 0.000000e+00
1
Step 237000
Ar 1.123930e+00 0.000000e+00 0.000000e+00
1
Step 238000
Ar 1.125750e+00 0.000000e+00 0.000000e+00
1
Step 239000
Ar 1.128805e+00 0.000000e+00 0.000000e+00
1
Step 240000
Ar 1.131927e+00 0.000000e+00 0.000000e+00
1
Step 241000
Ar 1.130340e+00 0.000000e+00 0.000000e+00
1
Step 242000
Ar 1.129163e+00 0.000000e+00 0.000000e+00
1
Step 243000
Ar 1.132745e+00 0.000000e+00 0.000000e+00
1
Step 244000
Ar 1.133035e+00 0.000000e+00 0.000000e+00
1
Step 245000
Ar 1.131398e+00 0.000000e+00 0.000000e+00
1
Step 246000
Ar 1.133731e+00 0.000000e+00 0.000000e+00
1
Step 247000
Ar 1.007507e+00 0.000000e+00 0.000000e+00
1
Step 248000
Ar 1.001423e+00 0.000000e+00 0.000000e+00
1
Step 249000
Ar 8.216007e-01 0.000000e+00 0.000000e+00
1
Step 250000
Ar 9.543004e-01 0.000000e+00 0.000000e+00
1
Step 251000
Ar 9.779978e-01 0.000000e+00 0.000000e+00
1
Step 252000
Ar 1.078815e+00 0.000000e+00 0.000000e+00
1
Step 253000
Ar 1.133957e+00 0.000000e+00 0.000000e+00
1
Step 254000
Ar 1.102377e+00 0.000000e+00 0.000000e+00
1
Step 255000
Ar 8.721071e-01 0.000000e+00 0.000000e+00
1
Step 256000
Ar 8.874487e-01 0.000000e+00 0.000000e+00
1
Step 257000
Ar 9.376042e-01 0.000000e+00 0.000000e+00
1
Step 258000
Ar 9.239744e-01 0.000000e+00 0.000000e+00
1
Step 259000
Ar 9.333049e-01 0.000000e+00 0.000000e+00
1
Step 260000
Ar 9.360612e-01 0.000000e+00 0.000000e+00
1
Step 261000
Ar 9.335757e-01 0.000000e+00 0.000000e+00
1
Step 262000
Ar 9.268295e-01 0.000000e+00 0.000000e+00
1
Step 263000
Ar 1.077242e+00 0.000000e+00 0.000000e+00
1
Step 264000
Ar 9.801790e-01 0.000000e+00 0.000000e+00
1
Step 265000
Ar 1.018479e+00 0.000000e+00 0.000000e+00
1
Step 266000
Ar 1.119912e+00 0.000000e+00 0.000000e+00
1
Step 267000
Ar 9.125957e-01 0.000000e+00 0.000000e+00
1
Step 268000
Ar 9.743554e-01 0.000000e+00 0.000000e+00
1
Step 269000
Ar 8.416374e-01 0.000000e+00 0.000000e+00
1
Step 270000
Ar 1.121147e+00 0.000000e+00 0.000000e+00
1
Step 271000
Ar 1.034067e+00 0.000000e+00 0.000000e+00
1
Step 272000
Ar 1.081054e+00 0.000000e+00 0.000000e+00
1
Step 273000
Ar 8.845484e-01 0.000000e+00 0.000000e+00
1
Step 274000
Ar 9.940480e-01 0.000000e+00 0.000000e+00
1
Step 275000
Ar 1.205708e+00 0.000000e+00 0.000000e+00
1
Step 276000
Ar 8.523732e-01 0.000000e+00 0.000000e+00
1
Step 277000
Ar 7.078268e-01 0.000000e+00 0.000000e+00
1
Step 278000
Ar 9.180296e-01 0.000000e+00 0.000000e+00
1
Step 279000
Ar 7.164400e-01 0.000000e+00 0.000000e+00
1
Step 280000
Ar 9.205441e-01 0.000000e+00 0.000000e+00
1
Step 281000
Ar 9.204844e-01 0.000000e+00 0.000000e+00
1
Step 282000
Ar 1.034988e+00 0.000000e+00 0.000000e+00
1
Step 283000
Ar 6.952905e-01 0.000000e+00 0.000000e+00
1
Step 284000
Ar 9.433131e-01 0.000000e+00 0.000000e+00
1
Step 285000
Ar 1.111786e+00 0.000000e+00 0.000000e+00
1
Step 286000
Ar 9.478298e-01 0.000000e+00 0.000000e+00
1
Step 287000
Ar 1.083504e+00 0.000000e+00 0.000000e+00
1
Step 288000
Ar 8.186775e-01 0.000000e+00 0.000000e+00
1
Step 289000
Ar 8.202591e-01 0.000000e+00 0.000000e+00
1
Step 290000
Ar 1.037746e+00 0.000000e+00 0.000000e+00
1
Step 291000
Ar 9.959180e-01 0.000000e+00 0.000000e+00
1
Step 292000
Ar 8.029248e-01 0.000000e+00 0.000000e+00
1
Step 293000
Ar 1.150672e+00 0.000000e+00 0.000000e+00
1
Step 294000
Ar 6.064432e-01 0.000000e+00 0.000000e+00
1
Step 295000
Ar 1.256491e+00 0.000000e+00 0.000000e+00
1
Step 296000
Ar 8.767476e-01 0.000000e+00 0.000000e+00
1
Step 297000
Ar 9.273889e-01 0.000000e+00 0.000000e+00
1
Step 298000
Ar 8.131139e-01 0.000000e+00 0.000000e+00
1
Step 299000
Ar 8.118789e-01 0.000000e+00 0.000000e+00
1
Step 300000
Ar 9.248945e-01 0.000000e+00 0.000000e+00
1
Step 301000
Ar 9.259949e-01 0.000000e+00 0.000000e+00
1
Step 302000
Ar 8.752871e-01 0.000000e+00 0.000000e+00
1
Step 303000
Ar 6.555945e-01 0.000000e+00 0.000000e+00
1
Step 304000
Ar 9.519508e-01 0.000000e+00 0.000000e+00
1
Step 305000
Ar 8.942146e-01 0.000000e+00 0.000000e+00
1
Step 306000
Ar 9.030008e-01 0.000000e+00 0.000000e+00
1
Step 307000
Ar 8.448615e-01 0.000000e+00 0.000000e+00
1
Step 308000
Ar 1.121344e+00 0.000000e+00 0.000000e+00
1
Step 309000
Ar 9.184971e-01 0.000000e+00 0.000000e+00
1
Step 310000
Ar -1.234179e+00 0.000000e+00 0.000000e+00
1
Step 311000
Ar -1.007257e+00 0.000000e+00 0.000000e+00
1
Step 312000
Ar -9.896416e-01 0.000000e+00 0.000000e+00
1
Step 313000
Ar -9.752725e-01 0.000000e+00 0.000000e+00
1
Step 314000
Ar -9.737515e-01 0.000000e+00 0.000000e+00
1
Step 315000
Ar -9.524580e-01 0.000000e+00 0.000000e+00
1
Step 316000
Ar -9.619136e-01 0.000000e+00 0.000000e+00
1
Step 317000
Ar -9.562830e-01 0.000000e+00 0.000000e+00
1
Step 318000
Ar -9.601417e-01 0.000000e+00 0.000000e+00
1
Step 319000
Ar -9.620611e-01 0.000000e+00 0.000000e+00
1
Step 320000
Ar -9.543606e-01 0.000000e+00 0.000000e+00
1
Step 321000
Ar -9.658122e-01 0.000000e+00 0.000000e+00
1
Step 322000
Ar -1.017965e+00 0.000000e+00 0.000000e+00
1
Step 323000
Ar -1.009501e+00 0.000000e+00 0.000000e+00
1
Step 324000
Ar -1.007114e+00 0.000000e+00 0.000000e+00
1
Step 325000
Ar -1.006868e+00 0.000000e+00 0.000000e+00
1
Step 326000
Ar -1.031180e+00 0.000000e+00 0.000000e+00
1
Step 327000
Ar -1.026701e+00 0.000000e+00 0.000000e+00
1
Step 328000
Ar -1.039004e+00 0.000000e+00 0.000000e+00
1
Step 329000
Ar -1.027168e+00 0.000000e+00 0.000000e+00
1
Step 330000
Ar -1.026480e+00 0.000000e+00 0.000000e+00
1
Step 331000
Ar -1.038533e+00 0.000000e+00 0.000000e+00
1
Step 332000
Ar -1.038738e+00 0.000000e+00 0.000000e+00
1
Step 333000
Ar -1.040198e+00 0.000000e+00 0.000000e+00
1
Step 334000
Ar -1.043629e+00 0.000000e+00 0.000000e+00
1
Step 335000
Ar -1.041417e+00 0.000000e+00 0.000000e+00
1
Step 336000
Ar -1.050951e+00 0.000000e+00 0.000000e+00
1
Step 337000
Ar -1.038344e+00 0.000000e+00 0.000000e+00
1
Step 338000
Ar -1.043019e+00 0.000000e+00 0.000000e+00
1
Step 339000
Ar -1.040307e+00 0.000000e+00 0.000000e+00
1
Step 340000
Ar -1.037778e+00 0.000000e+00 0.000000e+00
1
Step 341000
Ar -1.038816e+00 0.000000e+00 0.000000e+00
1
Step 342000
Ar -1.037657e+00 0.000000e+00 0.000000e+00
1
Step 343000
Ar -1.035745e+00 0.000000e+00 0.000000e+00
1
Step 344000
Ar -1.041111e+00 0.000000e+00 0.000000e+00
1
Step 345000
Ar -1.042669e+00 0.000000e+00 0.000000e+00
1
Step 346000
Ar -1.039334e+00 0.000000e+00 0.000000e+00
1
Step 347000
Ar -1.037954e+00 0.000000e+00 0.000000e+00
1
Step 348000
Ar -1.038889e+00 0.000000e+00 0.000000e+00
1
Step 349000
Ar -1.037919e+00 0.000000e+00 0.000000e+00
1
Step 350000
Ar -1.045299e+00 0.000000e+00 0.000000e+00
1
Step 351000
Ar -1.059019e+00 0.000000e+00 0.000000e+00
1
Step 352000
Ar -1.057782e+00 0.000000e+00 0.000000e+00
1
Step 353000
Ar -1.056430e+00 0.000000e+00 0.000000e+00
1
Step 354000
Ar -1.058518e+00 0.000000e+00 0.000000e+00
1
Step 355000
Ar -9.826168e-01 0.000000e+00 0.000000e+00
1
Step 356000
Ar -9.493177e-01 0.000000e+00 0.000000e+00
1
Step 357000
Ar -9.483174e-01 0.000000e+00 0.000000e+00
1
Step 358000
Ar -9.403668e-01 0.000000e+00 0.000000e+00
1
Step 359000
Ar -9.479105e-01 0.000000e+00 0.000000e+00
1
Step 360000
Ar -9.468778e-01 0.000000e+00 0.000000e+00
1
Step 361000
Ar -9.177546e-01 0.000000e+00 0.000000e+00
1
Step 362000
Ar -9.685344e-01 0.000000e+00 0.000000e+00
1
Step 363000
Ar -1.130309e+00 0.000000e+00 0.000000e+00
1
Step 364000
Ar -1.034097e+00 0.000000e+00 0.000000e+00
1
Step 365000
Ar -1.035448e+00 0.000000e+00 0.000000e+00
1
Step 366000
Ar -1.070032e+00 0.000000e+00 0.000000e+00
1
Step 367000
Ar -1.068191e+00 0.000000e+00 0.000000e+00
1
Step 368000
Ar -1.070960e+00 0.000000e+00 0.000000e+00
1
Step 369000
Ar -1.070304e+00 0.000000e+00 0.000000e+00
1
Step 370000
Ar -9.817909e-01 0.000000e+00 0.000000e+00
1
Step 371000
Ar -1.036678e+00 0.000000e+00 0.000000e+00
1
Step 372000
Ar -1.043469e+00 0.000000e+00 0.000000e+00
1
Step 373000
Ar -9.329835e-01 0.000000e+00 0.000000e+00
1
Step 374000
Ar -9.231706e-01 0.000000e+00 0.000000e+00
1
Step 375000
Ar -1.090398e+00 0.000000e+00 0.000000e+00
1
Step 376000
Ar -1.090684e+00 0.000000e+00 0.000000e+00
1
Step 377000
Ar -1.091448e+00 0.000000e+00 0.000000e+00
1
Step 378000
Ar -9.155394e-01 0.000000e+00 0.000000e+00
1
Step 379000
Ar -9.103062e-01 0.000000e+00 0.000000e+00
1
Step 380000
Ar -9.081314e-01 0.000000e+00 0.000000e+00
1
Step 381000
Ar -9.101392e-01 0.000000e+00 0.000000e+00
1
Step 382000
Ar -9.099282e-01 0.000000e+00 0.000000e+00
1
Step 383000
Ar -9.529585e-01 0.000000e+00 0.000000e+00
1
Step 384000
Ar -8.938785e-01 0.000000e+00 0.000000e+00
1
Step 385000
Ar -1.019265e+00 0.000000e+00 0.000000e+00
1
Step 386000
Ar -8.814754e-01 0.000000e+00 0.000000e+00
1
Step 387000
Ar -1.081428e+00 0.000000e+00 0.000000e+00
1
Step 388000
Ar -1.030140e+00 0.000000e+00 0.000000e+00
1
Step 389000
Ar -1.036950e+00 0.000000e+00 0.000000e+00
1
Step 390000
Ar -8.877510e-01 0.000000e+00 0.000000e+00
1
Step 391000
Ar -8.851372e-01 0.000000e+00 0.000000e+00
1
Step 392000
Ar -8.882478e-01 0.000000e+00 0.000000e+00
1
Step 393000
Ar -8.871599e-01 0.000000e+00 0.000000e+00
1
Step 394000
Ar -8.857203e-01 0.000000e+00 0.000000e+00
1
Step 395000
Ar -8.871490e-01 0.000000e+00 0.000000e+00
1
Step 396000
Ar -8.879917e-01 0.000000e+00 0.000000e+00
1
Step 397000
Ar -8.867093e-01 0.000000e+00 0.000000e+00
1
Step 398000
Ar -8.849029e-01 0.000000e+00 0.000000e+00
1
Step 399000
Ar -8.876971e-01 0.000000e+00 0.000000e+00
1
Step 400000
Ar -1.019498e+00 0.000000e+00 0.000000e+00
1
Step 401000
Ar -1.013565e+00 0.000000e+00 0.000000e+00
1
Step 402000
Ar -8.749704e-01 0.000000e+00 0.000000e+00
1
Step 403000
Ar -8.754469e-01 0.000000e+00 0.000000e+00
1
Step 404000
Ar -8.739047e-01 0.000000e+00 0.000000e+00
1
Step 405000
Ar -9.475319e-01 0.000000e+00 0.000000e+00
1
Step 406000
Ar -1.040372e+00 0.000000e+00 0.000000e+00
1
Step 407000
Ar -8.765412e-01 0.000000e+00 0.000000e+00
1
Step 408000
Ar -8.776976e-01 0.000000e+00 0.000000e+00
1
Step 409000
Ar -1.089404e+00 0.000000e+00 0.000000e+00
1
Step 410000
Ar -1.141321e+00 0.000000e+00 0.000000e+00
1
Step 411000
Ar -9.531547e-01 0.000000e+00 0.000000e+00
1
Step 412000
Ar -7.863267e-01 0.000000e+00 0.000000e+00
1
Step 413000
Ar -1.127382e+00 0.000000e+00 0.000000e+00
1
Step 414000
Ar -9.835346e-01 0.000000e+00 0.000000e+00
1
Step 415000
Ar -1.170339e+00 0.000000e+00 0.000000e+00
1
Step 416000
Ar -9.517964e-01 0.000000e+00 0.000000e+00
1
Step 417000
Ar -9.317669e-01 0.000000e+00 0.000000e+00
1
Step 418000
Ar -1.062926e+00 0.000000e+00 0.000000e+00
1
Step 419000
Ar -1.042593e+00 0.000000e+00 0.000000e+00
1
Step 420000
Ar -1.021521e+00 0.000000e+00 0.000000e+00
1
Step 421000
Ar -1.020584e+00 0.000000e+00 0.000000e+00
1
Step 422000
Ar -9.797563e-01 0.000000e+00 0.000000e+00
1
Step 423000
Ar -9.701366e-01 0.000000e+00 0.000000e+00
1
Step 424000
Ar -9.993269e-01 0.000000e+00 0.000000e+00
1
Step 425000
Ar -9.377963e-01 0.000000e+00 0.000000e+00
1
Step 426000
Ar -1.058944e+00 0.000000e+00 0.000000e+00
1
Step 427000
Ar -9.833790e-01 0.000000e+00 0.000000e+00
1
Step 428000
Ar -1.045558e+00 0.000000e+00 0.000000e+00
1
Step 429000
Ar -1.025374e+00 0.000000e+00 0.000000e+00
1
Step 430000
Ar -9.094096e-01 0.000000e+00 0.000000e+00
1
Step 431000
Ar -9.097688e-01 0.000000e+00 0.000000e+00
1
Step 432000
Ar -9.141304e-01 0.000000e+00 0.000000e+00
1
Step 433000
Ar -9.133640e-01 0.000000e+00 0.000000e+00
1
Step 434000
Ar -9.149403e-01 0.000000e+00 0.000000e+00
1
Step 435000
Ar -9.150729e-01 0.000000e+00 0.000000e+00
1
Step 436000
Ar -9.163045e-01 0.000000e+00 0.000000e+00
1
Step 437000
Ar -9.151789e-01 0.000000e+00 0.000000e+00
1
Step 438000
Ar -9.103398e-01 0.000000e+00 0.000000e+00
1
Step 439000
Ar -1.036377e+00 0.000000e+00 0.000000e+00
1
Step 440000
Ar -9.671444e-01 0.000000e+00 0.000000e+00
1
Step 441000
Ar -1.207557e+00 0.000000e+00 0.000000e+00
1
Step 442000
Ar -9.842798e-01 0.000000e+00 0.000000e+00
1
Step 443000
Ar -9.439444e-01 0.000000e+00 0.000000e+00
1
Step 444000
Ar -1.031691e+00 0.000000e+00 0.000000e+00
1
Step 445000
Ar -9.606712e-01 0.000000e+00 0.000000e+00
1
Step 446000
Ar -1.022268e+00 0.000000e+00 0.000000e+00
1
Step 447000
Ar -1.027744e+00 0.000000e+00 0.000000e+00
1
Step 448000
Ar -1.026829e+00 0.000000e+00 0.000000e+00
1
Step 449000
Ar -1.024407e+00 0.000000e+00 0.000000e+00
1
Step 450000
Ar -1.094049e+00 0.000000e+00 0.000000e+00
1
Step 451000
Ar -1.092789e+00 0.000000e+00 0.000000e+00
1
Step 452000
Ar -1.090975e+00 0.000000e+00 0.000000e+00
1
Step 453000
Ar -9.261097e-01 0.000000e+00 0.000000e+00
1
Step 454000
Ar -1.096155e+00 0.000000e+00 0.000000e+00
1
Step 455000
Ar -1.091363e+00 0.000000e+00 0.000000e+00
1
Step 456000
Ar -9.978646e-01 0.000000e+00 0.000000e+00
1
Step 457000
Ar -9.135134e-01 0.000000e+00 0.000000e+00
1
Step 458000
Ar -1.095728e+00 0.000000e+00 0.000000e+00
1
Step 459000
Ar -1.025219e+00 0.000000e+00 0.000000e+00
1
Step 460000
Ar -1.142708e+00 0.000000e+00 0.000000e+00
1
Step 461000
Ar -1.048561e+00 0.000000e+00 0.000000e+00
1
Step 462000
Ar -8.396079e-01 0.000000e+00 0.000000e+00
1
Step 463000
Ar -9.664594e-01 0.000000e+00 0.000000e+00
1
Step 464000
Ar -1.155303e+00 0.000000e+00 0.000000e+00
1
Step 465000
Ar -7.986621e-01 0.000000e+00 0.000000e+00
1
Step 466000
Ar -1.310246e+00 0.000000e+00 0.000000e+00
1
Step 467000
Ar -1.115315e+00 0.000000e+00 0.000000e+00
1
Step 468000
Ar -1.122272e+00 0.000000e+00 0.000000e+00
1
Step 469000
Ar -9.057241e-01 0.000000e+00 0.000000e+00
1
Step 470000
Ar -9.083492e-01 0.000000e+00 0.000000e+00
1
Step 471000
Ar -9.021461e-01 0.000000e+00 0.000000e+00
1
Step 472000
Ar -9.068438e-01 0.000000e+00 0.000000e+00
1
Step 473000
Ar -9.062934e-01 0.000000e+00 0.000000e+00
1
Step 474000
Ar -9.074938e-01 0.000000e+00 0.000000e+00
1
Step 475000
Ar -9.101159e-01 0.000000e+00 0.000000e+00
1
Step 476000
Ar -9.049709e-01 0.000000e+00 0.000000e+00
1
Step 477000
Ar -9.134239e-01 0.000000e+00 0.000000e+00
1
Step 478000
Ar -9.841190e-01 0.000000e+00 0.000000e+00
1
Step 479000
Ar -1.104333e+00 0.000000e+00 0.000000e+00
1
Step 480000
Ar -1.008035e+00 0.000000e+00 0.000000e+00
1
Step 481000
Ar -9.735142e-01 0.000000e+00 0.000000e+00
1
Step 482000
Ar -9.697881e-01 0.000000e+00 0.000000e+00
1
Step 483000
Ar -9.612251e-01 0.000000e+00 0.000000e+00
1
Step 484000
Ar -9.762528e-01 0.000000e+00 0.000000e+00
1
Step 485000
Ar -9.668663e-01 0.000000e+00 0.000000e+00
1
Step 486000
Ar -9.704262e-01 0.000000e+00 0.000000e+00
1
Step 487000
Ar -7.919477e-01 0.000000e+00 0.000000e+00
1
Step 488000
Ar -9.205065e-01 0.000000e+00 0.000000e+00
1
Step 489000
Ar -1.197001e+00 0.000000e+00 0.000000e+00
1
Step 490000
Ar -9.422146e-01 0.000000e+00 0.000000e+00
1
Step 491000
Ar -9.911539e-01 0.000000e+00 0.000000e+00
1
Step 492000
Ar -9.697956e-01 0.000000e+00 0.000000e+00
1
Step 493000
Ar -9.813773e-01 0.000000e+00 0.000000e+00
1
Step 494000
Ar -9.855819e-01 0.000000e+00 0.000000e+00
1
Step 495000
Ar -9.827135e-01 0.000000e+00 0.000000e+00
1
Step 496000
Ar -9.839352e-01 0.000000e+00 0.000000e+00
1
Step 497000
Ar -9.835732e-01 0.000000e+00 0.000000e+00
1
Step 498000
Ar -9.783652e-01 0.000000e+00 0.000000e+00
1
Step 499000
Ar -1.006685e+00 0.000000e+00 0.000000e+00
1
Step 500000
Ar -1.248331e+00 0.000000e+00 0.000000e+00
1
Step 501000
Ar -1.026539e+00 0.000000e+00 0.000000e+00
1
Step 502000
Ar -1.027265e+00 0.000000e+00 0.000000e+00
1
Step 503000
Ar -1.023777e+00 0.000000e+00 0.000000e+00
1
Step 504000
Ar -1.128718e+00 0.000000e+00 0.000000e+00
1
Step 505000
Ar -9.678671e-01 0.000000e+00 0.000000e+00
1
Step 506000
Ar -9.937142e-01 0.000000e+00 0.000000e+00
1
Step 507000
Ar -1.236530e+00 0.000000e+00 0.000000e+00
1
Step 508000
Ar -8.042047e-01 0.000000e+00 0.000000e+00
1
Step 509000
Ar -1.014801e+00 0.000000e+00 0.000000e+00
1
Step 510000
Ar -9.836096e-01 0.000000e+00 0.000000e+00
1
Step 511000
Ar -1.212976e+00 0.000000e+00 0.000000e+00
1
Step 512000
Ar -9.427749e-01 0.000000e+00 0.000000e+00
1
Step 513000
Ar -1.094117e+00 0.000000e+00 0.000000e+00
1
Step 514000
Ar -1.030792e+00 0.000000e+00 0.000000e+00
1
Step 515000
Ar -8.573019e-01 0.000000e+00 0.000000e+00
1
Step 516000
Ar -1.243643e+00 0.000000e+00 0.000000e+00
1
Step 517000
Ar -9.223394e-01 0.000000e+00 0.000000e+00
1
Step 518000
Ar -9.707567e-01 0.000000e+00 0.000000e+00
1
Step 519000
Ar -9.314986e-01 0.000000e+00 0.000000e+00
1
Step 520000
Ar -9.396160e-01 0.000000e+00 0.000000e+00
1
Step 521000
Ar -9.447345e-01 0.000000e+00 0.000000e+00
1
Step 522000
Ar -9.435978e-01 0.000000e+00 0.000000e+00
1
Step 523000
Ar -9.397695e-01 0.000000e+00 0.000000e+00
1
Step 524000
Ar -9.144066e-01 0.000000e+00 0.000000e+00
1
Step 525000
Ar -1.118248e+00 0.000000e+00 0.000000e+00
1
Step 526000
Ar -9.414214e-01 0.000000e+00 0.000000e+00
1
Step 527000
Ar -9.658662e-01 0.000000e+00 0.000000e+00
1
Step 528000
Ar -9.893579e-01 0.000000e+00 0.000000e+00
1
Step 529000
Ar -9.726051e-01 0.000000e+00 0.000000e+00
1
Step 530000
Ar -9.879620e-01 0.000000e+00 0.000000e+00
1
Step 531000
Ar -8.962137e-01 0.000000e+00 0.000000e+00
1
Step 532000
Ar -9.095103e-01 0.000000e+00 0.000000e+00
1
Step 533000
Ar -9.099634e-01 0.000000e+00 0.000000e+00
1
Step 534000
Ar -7.825696e-01 0.000000e+00 0.000000e+00
1
Step 535000
Ar -9.434555e-01 0.000000e+00 0.000000e+00
1
Step 536000
Ar -1.049829e+00 0.000000e+00 0.000000e+00
1
Step 537000
Ar -1.050991e+00 0.000000e+00 0.000000e+00
1
Step 538000
Ar -9.012958e-01 0.000000e+00 0.000000e+00
1
Step 539000
Ar -9.410024e-01 0.000000e+00 0.000000e+00
1
Step 540000
Ar -9.408943e-01 0.000000e+00 0.000000e+00
1
Step 541000
Ar -9.429669e-01 0.000000e+00 0.000000e+00
1
Step 542000
Ar -9.485798e-01 0.000000e+00 0.000000e+00
1
Step 543000
Ar -1.035137e+00 0.000000e+00 0.000000e+00
1
Step 544000
Ar -1.030376e+00 0.000000e+00 0.000000e+00
1
Step 545000
Ar -9.893214e-01 0.000000e+00 0.000000e+00
1
Step 546000
Ar -9.924018e-01 0.000000e+00 0.000000e+00
1
Step 547000
Ar -9.925140e-01 0.000000e+00 0.000000e+00
1
Step 548000
Ar -9.540222e-01 0.000000e+00 0.000000e+00
1
Step 549000
Ar -8.651595e-01 0.000000e+00 0.000000e+00
1
Step 550000
Ar -8.345164e-01 0.000000e+00 0.000000e+00
1
Step 551000
Ar -9.404728e-01 0.000000e+00 0.000000e+00
1
Step 552000
Ar -9.371977e-01 0.000000e+00 0.000000e+00
1
Step 553000
Ar -9.829336e-01 0.000000e+00 0.000000e+00
1
Step 554000
Ar -3.662339e-01 0.000000e+00 0.000000e+00
1
Step 555000
Ar -1.003802e+00 0.000000e+00 0.000000e+00
1
Step 556000
Ar -9.904400e-01 0.000000e+00 0.000000e+00
1
Step 557000
Ar -9.893939e-01 0.000000e+00 0.000000e+00
1
Step 558000
Ar -1.114038e+00 0.000000e+00 0.000000e+00
1
Step 559000
Ar -9.543081e-01 0.000000e+00 0.000000e+00
1
Step 560000
Ar -8.809246e-01 0.000000e+00 0.000000e+00
1
Step 561000
Ar -8.796900e-01 0.000000e+00 0.000000e+00
1
Step 562000
Ar -1.088674e+00 0.000000e+00 0.000000e+00
1
Step 563000
Ar -1.015384e+00 0.000000e+00 0.000000e+00
1
Step 564000
Ar -9.955934e-01 0.000000e+00 0.000000e+00
1
Step 565000
Ar -1.013766e+00 0.000000e+00 0.000000e+00
1
Step 566000
Ar -9.304328e-01 0.000000e+00 0.000000e+00
1
Step 567000
Ar -1.123341e+00 0.000000e+00 0.000000e+00
1
Step 568000
Ar -9.336432e-01 0.000000e+00 0.000000e+00
1
Step 569000
Ar -9.353552e-01 0.000000e+00 0.000000e+00
1
Step 570000
Ar -7.691046e-01 0.000000e+00 0.000000e+00
1
Step 571000
Ar -9.835284e-01 0.000000e+00 0.000000e+00
1
Step 572000
Ar -9.281749e-01 0.000000e+00 0.000000e+00
1
Step 573000
Ar -9.436557e-01 0.000000e+00 0.000000e+00
1
Step 574000
Ar -9.330276e-01 0.000000e+00 0.000000e+00
1
Step 575000
Ar -8.480495e-01 0.000000e+00 0.000000e+00
1
Step 576000
Ar -8.486432e-01 0.000000e+00 0.000000e+00
1
Step 577000
Ar -1.041679e+00 0.000000e+00 0.000000e+00
1
Step 578000
Ar -7.721088e-01 0.000000e+00 0.000000e+00
1
Step 579000
Ar -9.858200e-01 0.000000e+00 0.000000e+00
1
Step 580000
Ar -1.033960e+00 0.000000e+00 0.000000e+00
1
Step 581000
Ar -9.697160e-01 0.000000e+00 0.000000e+00
1
Step 582000
Ar -1.045144e+00 0.000000e+00 0.000000e+00
1
Step 583000
Ar -1.097123e+00 0.000000e+00 0.000000e+00
1
Step 584000
Ar -9.194805e-01 0.000000e+00 0.000000e+00
1
Step 585000
Ar -1.116746e+00 0.000000e+00 0.000000e+00
1
Step 586000
Ar -6.023298e-01 0.000000e+00 0.000000e+00
1
Step 587000
Ar -1.122657e+00 0.000000e+00 0.000000e+00
1
Step 588000
Ar -1.215248e+00 0.000000e+00 0.000000e+00
1
Step 589000
Ar -8.023822e-01 0.000000e+00 0.000000e+00
1
Step 590000
Ar -8.019849e-01 0.000000e+00 0.000000e+00
1
Step 591000
Ar -1.055844e+00 0.000000e+00 0.000000e+00
1
Step 592000
Ar -8.037238e-01 0.000000e+00 0.000000e+00
1
Step 593000
Ar -9.213263e-01 0.000000e+00 0.000000e+00
1
Step 594000
Ar -1.147960e+00 0.000000e+00 0.000000e+00
1
Step 595000
Ar -8.520846e-01 0.000000e+00 0.000000e+00
1
Step 596000
Ar -7.784711e-01 0.000000e+00 0.000000e+00
1
Step 597000
Ar -8.095185e-01 0.000000e+00 0.000000e+00
1
Step 598000
Ar -8.508716e-01 0.000000e+00 0.000000e+00
1
Step 599000
Ar -1.055784e+00 0.000000e+00 0.000000e+00
1
Step 600000
Ar -9.822206e-01 0.000000e+00 0.000000e+00
1
Step 601000
Ar -7.979708e-01 0.000000e+00 0.000000e+00
1
Step 602000
Ar -8.512834e-01 0.000000e+00 0.000000e+00
1
Step 603000
Ar -8.508072e-01 0.000000e+00 0.000000e+00
1
Step 604000
Ar -8.500946e-01 0.000000e+00 0.000000e+00
1
Step 605000
Ar -8.428095e-01 0.000000e+00 0.000000e+00
1
Step 606000
Ar -8.584925e-01 0.000000e+00 0.000000e+00
1
Step 607000
Ar -9.377579e-01 0.000000e+00 0.000000e+00
1
Step 608000
Ar -5.975344e-01 0.000000e+00 0.000000e+00
1
Step 609000
Ar -8.520106e-01 0.000000e+00 0.000000e+00
1
Step 610000
Ar -8.712569e-01 0.000000e+00 0.000000e+00
1
Step 611000
Ar -9.309002e-01 0.000000e+00 0.000000e+00
1
Step 612000
Ar -1.121971e+00 0.000000e+00 0.000000e+00
1
Step 613000
Ar -6.620165e-01 0.000000e+00 0.000000e+00
1
Step 614000
Ar -9.757415e-01 0.000000e+00 0.000000e+00
1
Step 615000
Ar -9.780655e-01 0.000000e+00 0.000000e+00
1
Step 616000
Ar -1.116907e+00 0.000000e+00 0.000000e+00
1
Step 617000
Ar -1.028278e+00 0.000000e+00 0.000000e+00
1
Step 618000
Ar -1.012521e+00 0.000000e+00 0.000000e+00
1
Step 619000
Ar -1.101343e+00 0.000000e+00 0.000000e+00
1
Step 620000
Ar -7.600111e-01 0.000000e+00 0.000000e+00
1
Step 621000
Ar -1.141797e+00 0.000000e+00 0.000000e+00
1
Step 622000
Ar -9.773745e-01 0.000000e+00 0.000000e+00
1
Step 623000
Ar -9.541156e-01 0.000000e+00 0.000000e+00
1
Step 624000
Ar -9.752831e-01 0.000000e+00 0.000000e+00
1
Step 625000
Ar -1.220964e+00 0.000000e+00 0.000000e+00
1
Step 626000
Ar 1.044075e+00 0.000000e+00 0.000000e+00
1
Step 627000
Ar 1.126059e+00 0.000000e+00 0.000000e+00
1
Step 628000
Ar 1.105416e+00 0.000000e+00 0.000000e+00
1
Step 629000
Ar 9.201475e-01 0.000000e+00 0.000000e+00
1
Step 630000
Ar 9.933245e-01 0.000000e+00 0.000000e+00
1
Step 631000
Ar 1.012938e+00 0.000000e+00 0.000000e+00
1
Step 632000
Ar 9.211870e-01 0.000000e+00 0.000000e+00
1
Step 633000
Ar 9.192764e-01 0.000000e+00 0.000000e+00
1
Step 634000
Ar 1.049034e+00 0.000000e+00 0.000000e+00
1
Step 635000
Ar 1.085224e+00 0.000000e+00 0.000000e+00
1
Step 636000
Ar 1.081532e+00 0.000000e+00 0.000000e+00
1
Step 637000
Ar 1.079545e+00 0.000000e+00 0.000000e+00
1
Step 638000
Ar 1.136027e+00 0.000000e+00 0.000000e+00
1
Step 639000
Ar 9.275071e-01 0.000000e+00 0.000000e+00
1
Step 640000
Ar 9.036124e-01 0.000000e+00 0.000000e+00
1
Step 641000
Ar 9.070483e-01 0.000000e+00 0.000000e+00
1
Step 642000
Ar 9.060313e-01 0.000000e+00 0.000000e+00
1
Step 643000
Ar 9.028329e-01 0.000000e+00 0.000000e+00
1
Step 644000
Ar 9.056830e-01 0.000000e+00 0.000000e+00
1
Step 645000
Ar 9.717948e-01 0.000000e+00 0.000000e+00
1
Step 646000
Ar 8.824623e-01 0.000000e+00 0.000000e+00
1
Step 647000
Ar 8.901955e-01 0.000000e+00 0.000000e+00
1
Step 648000
Ar 8.852408e-01 0.000000e+00 0.000000e+00
1
Step 649000
Ar 8.857873e-01 0.000000e+00 0.000000e+00
1