1
Step 120000
Ar 1.127316e+00 0.000000e+00 0.000000e+00
1
Step 121000
Ar 8.689083e-01 0.000000e+00 0.000000e+00
1
Step 122000
Ar 1.001598e+00 0.000000e+00 0.000000e+00
1
Step 123000
Ar 1.206521e+00 0.000000e+00 0.000000e+00
1
Step 124000
Ar 1.223577e+00 0.000000e+00 0.000000e+00
1
Step 125000
Ar 8.919336e-01 0.000000e+00 0.000000e+00
1
Step 126000
Ar 8.000351e-01 0.000000e+00 0.000000e+00
1
Step 127000
Ar 1.052036e+00 0.000000e+00 0.000000e+00
1
Step 128000
Ar 1.018202e+00 0.000000e+00 0.000000e+00
1
Step 129000
Ar 8.016328e-01 0.000000e+00 0.000000e+00
1
Step 130000
Ar 9.483567e-01 0.000000e+00 0.000000e+00
1
Step 131000
Ar 8.909606e-01 0.000000e+00 0.000000e+00
1
Step 132000
Ar 9.119460e-01 0.000000e+00 0.000000e+00
1
Step 133000
Ar 9.492108e-01 0.000000e+00 0.000000e+00
1
Step 134000
Ar 1.244891e+00 0.000000e+00 0.000000e+00
1
Step 135000
Ar 1.190210e+00 0.000000e+00 0.000000e+00
1
Step 136000
Ar 1.200213e+00 0.000000e+00 0.000000e+00
1
Step 137000
Ar 1.187609e+00 0.000000e+00 0.000000e+00
1
Step 138000
Ar 1.192392e+00 0.000000e+00 0.000000e+00
1
Step 139000
Ar 9.769934e-01 0.000000e+00 0.000000e+00
1
Step 140000
Ar 1.103944e+00 0.000000e+00 0.000000e+00
1
Step 141000
Ar 1.155702e+00 0.000000e+00 0.000000e+00
1
Step 142000
Ar 1.153442e+00 0.000000e+00 0.000000e+00
1
Step 143000
Ar 1.147497e+00 0.000000e+00 0.000000e+00
1
Step 144000
Ar 1.127733e+00 0.000000e+00 0.000000e+00
1
Step 145000
Ar 1.031535e+00 0.000000e+00 0.000000e+00
1
Step 146000
Ar 1.028628e+00 0.000000e+00 0.000000e+00
1
Step 147000
Ar 1.028473e+00 0.000000e+00 0.000000e+00
1
Step 148000
Ar 7.847903e-01 0.000000e+00 0.000000e+00
1
Step 149000
Ar 8.049652e-01 0.000000e+00 0.000000e+00
1
Step 150000
Ar 9.241459e-01 0.000000e+00 0.000000e+00
1
Step 151000
Ar 8.989940e-01 0.000000e+00 0.000000e+00
1
Step 152000
Ar 7.206585e-01 0.000000e+00 0.000000e+00
1
Step 153000
Ar 7.320478e-01 0.000000e+00 0.000000e+00
1
Step 154000
Ar 7.488459e-01 0.000000e+00 0.000000e+00
1
Step 155000
Ar 8.989665e-01 0.000000e+00 0.000000e+00
1
Step 156000
Ar 9.075665e-01 0.000000e+00 0.000000e+00
1
Step 157000
Ar 6.683586e-01 0.000000e+00 0.000000e+00
1
Step 158000
Ar 6.574162e-01 0.000000e+00 0.000000e+00
1
Step 159000
Ar 7.444625e-01 0.000000e+00 0.000000e+00
1
Step 160000
Ar 7.517845e-01 0.000000e+00 0.000000e+00
1
Step 161000
Ar 5.963910e-01 0.000000e+00 0.000000e+00
1
Step 162000
Ar 5.998993e-01 0.000000e+00 0.000000e+00
1
Step 163000
Ar 6.064019e-01 0.000000e+00 0.000000e+00
1
Step 164000
Ar 6.251440e-01 0.000000e+00 0.000000e+00
1
Step 165000
Ar 6.064812e-01 0.000000e+00 0.000000e+00
1
Step 166000
Ar 6.115548e-01 0.000000e+00 0.000000e+00
1
Step 167000
Ar 7.165667e-01 0.000000e+00 0.000000e+00
1
Step 168000
Ar 6.906506e-01 0.000000e+00 0.000000e+00
1
Step 169000
Ar 7.094078e-01 0.000000e+00 0.000000e+00
1
Step 170000
Ar 5.314264e-01 0.000000e+00 0.000000e+00
1
Step 171000
Ar 5.348856e-01 0.000000e+00 0.000000e+00
1
Step 172000
Ar 5.204443e-01 0.000000e+00 0.000000e+00
1
Step 173000
Ar 3.560037e-01 0.000000e+00 0.000000e+00
1
Step 174000
Ar 4.533250e-01 0.000000e+00 0.000000e+00
1
Step 175000
Ar 1.313114e-01 0.000000e+00 0.000000e+00
1
Step 176000
Ar -9.550542e-01 0.000000e+00 0.000000e+00
1
Step 177000
Ar -1.022957e+00 0.000000e+00 0.000000e+00
1
Step 178000
Ar -9.978666e-01 0.000000e+00 0.000000e+00
1
Step 179000
Ar -7.845013e-01 0.000000e+00 0.000000e+00
1
Step 180000
Ar -1.097659e+00 0.000000e+00 0.000000e+00
1
Step 181000
Ar -1.103638e+00 0.000000e+00 0.000000e+00
1
Step 182000
Ar -1.056453e+00 0.000000e+00 0.000000e+00
1
Step 183000
Ar -1.086502e+00 0.000000e+00 0.000000e+00
1
Step 184000
Ar -1.099628e+00 0.000000e+00 0.000000e+00
1
Step 185000
Ar -1.071003e+00 0.000000e+00 0.000000e+00
1
Step 186000
Ar -1.142269e+00 0.000000e+00 0.000000e+00
1
Step 187000
Ar -1.298434e+00 0.000000e+00 0.000000e+00
1
Step 188000
Ar -1.257661e+00 0.000000e+00 0.000000e+00
1
Step 189000
Ar -1.279592e+00 0.000000e+00 0.000000e+00
1
Step 190000
Ar -1.173687e+00 0.000000e+00 0.000000e+00
1
Step 191000
Ar -1.172828e+00 0.000000e+00 0.000000e+00
1
Step 192000
Ar -1.190654e+00 0.000000e+00 0.000000e+00
1
Step 193000
Ar -1.152566e+00 0.000000e+00 0.000000e+00
1
Step 194000
Ar -1.150335e+00 0.000000e+00 0.000000e+00
1
Step 195000
Ar -9.610773e-01 0.000000e+00 0.000000e+00
1
Step 196000
Ar -9.742841e-01 0.000000e+00 0.000000e+00
1
Step 197000
Ar -9.636631e-01 0.000000e+00 0.000000e+00
1
Step 198000
Ar -1.088112e+00 0.000000e+00 0.000000e+00
1
Step 199000
Ar -8.204055e-01 0.000000e+00 0.000000e+00
1
Step 200000
Ar -8.387749e-01 0.000000e+00 0.000000e+00
1
Step 201000
Ar -8.362177e-01 0.000000e+00 0.000000e+00
1
Step 202000
Ar -8.268357e-01 0.000000e+00 0.000000e+00
1
Step 203000
Ar -8.349693e-01 0.000000e+00 0.000000e+00
1
Step 204000
Ar -8.200262e-01 0.000000e+00 0.000000e+00
1
Step 205000
Ar -1.007777e+00 0.000000e+00 0.000000e+00
1
Step 206000
Ar -1.059406e+00 0.000000e+00 0.000000e+00
1
Step 207000
Ar -1.063365e+00 0.000000e+00 0.000000e+00
1
Step 208000
Ar -1.055597e+00 0.000000e+00 0.000000e+00
1
Step 209000
Ar -1.024028e+00 0.000000e+00 0.000000e+00
1
Step 210000
Ar -1.031885e+00 0.000000e+00 0.000000e+00
1
Step 211000
Ar -1.035349e+00 0.000000e+00 0.000000e+00
1
Step 212000
Ar -1.034985e+00 0.000000e+00 0.000000e+00
1
Step 213000
Ar -1.022941e+00 0.000000e+00 0.000000e+00
1
Step 214000
Ar -8.851647e-01 0.000000e+00 0.000000e+00
1
Step 215000
Ar -9.313446e-01 0.000000e+00 0.000000e+00
1
Step 216000
Ar -9.537782e-01 0.000000e+00 0.000000e+00
1
Step 217000
Ar -9.471785e-01 0.000000e+00 0.000000e+00
1
Step 218000
Ar -9.619574e-01 0.000000e+00 0.000000e+00
1
Step 219000
Ar -9.635450e-01 0.000000e+00 0.000000e+00
1
Step 220000
Ar -1.178255e+00 0.000000e+00 0.000000e+00
1
Step 221000
Ar -1.168511e+00 0.000000e+00 0.000000e+00
1
Step 222000
Ar -1.121610e+00 0.000000e+00 0.000000e+00
1
Step 223000
Ar -1.110776e+00 0.000000e+00 0.000000e+00
1
Step 224000
Ar -1.089498e+00 0.000000e+00 0.000000e+00
1
Step 225000
Ar -1.116395e+00 0.000000e+00 0.000000e+00
1
Step 226000
Ar -1.123008e+00 0.000000e+00 0.000000e+00
1
Step 227000
Ar -1.129603e+00 0.000000e+00 0.000000e+00
1
Step 228000
Ar -1.126514e+00 0.000000e+00 0.000000e+00
1
Step 229000
Ar -1.220532e+00 0.000000e+00 0.000000e+00
1
Step 230000
Ar -1.258405e+00 0.000000e+00 0.000000e+00
1
Step 231000
Ar -1.202975e+00 0.000000e+00 0.000000e+00
1
Step 232000
Ar -1.165776e+00 0.000000e+00 0.000000e+00
1
Step 233000
Ar -1.173581e+00 0.000000e+00 0.000000e+00
1
Step 234000
Ar -1.153192e+00 0.000000e+00 0.000000e+00
1
Step 235000
Ar -1.236077e+00 0.000000e+00 0.000000e+00
1
Step 236000
Ar -1.230281e+00 0.000000e+00 0.000000e+00
1
Step 237000
Ar -1.229956e+00 0.000000e+00 0.000000e+00
1
Step 238000
Ar -1.294953e+00 0.000000e+00 0.000000e+00
1
Step 239000
Ar -1.301438e+00 0.000000e+00 0.000000e+00
1
Step 240000
Ar -1.307904e+00 0.000000e+00 0.000000e+00
1
Step 241000
Ar -1.238426e+00 0.000000e+00 0.000000e+00
1
Step 242000
Ar -1.395227e+00 0.000000e+00 0.000000e+00
1
Step 243000
Ar -1.451596e+00 0.000000e+00 0.000000e+00
1
Step 244000
Ar -4.866806e-01 0.000000e+00 0.000000e+00
1
Step 245000
Ar -7.567842e-01 0.000000e+00 0.000000e+00
1
Step 246000
Ar -6.229839e-01 0.000000e+00 0.000000e+00
1
Step 247000
Ar -6.657134e-01 0.000000e+00 0.000000e+00
1
Step 248000
Ar -6.758712e-01 0.000000e+00 0.000000e+00
1
Step 249000
Ar -8.075868e-01 0.000000e+00 0.000000e+00
1
Step 250000
Ar -7.969168e-01 0.000000e+00 0.000000e+00
1
Step 251000
Ar -8.112010e-01 0.000000e+00 0.000000e+00
1
Step 252000
Ar -7.928946e-01 0.000000e+00 0.000000e+00
1
Step 253000
Ar -9.709187e-01 0.000000e+00 0.000000e+00
1
Step 254000
Ar -8.725455e-01 0.000000e+00 0.000000e+00
1
Step 255000
Ar -9.663927e-01 0.000000e+00 0.000000e+00
1
Step 256000
Ar -9.633645e-01 0.000000e+00 0.000000e+00
1
Step 257000
Ar -8.367112e-01 0.000000e+00 0.000000e+00
1
Step 258000
Ar -8.209701e-01 0.000000e+00 0.000000e+00
1
Step 259000
Ar -7.966502e-01 0.000000e+00 0.000000e+00
1
Step 260000
Ar -1.000929e+00 0.000000e+00 0.000000e+00
1
Step 261000
Ar -8.968707e-01 0.000000e+00 0.000000e+00
1
Step 262000
Ar -9.192902e-01 0.000000e+00 0.000000e+00
1
Step 263000
Ar -9.316944e-01 0.000000e+00 0.000000e+00
1
Step 264000
Ar -8.981735e-01 0.000000e+00 0.000000e+00
1
Step 265000
Ar -9.760400e-01 0.000000e+00 0.000000e+00
1
Step 266000
Ar -9.746356e-01 0.000000e+00 0.000000e+00
1
Step 267000
Ar -1.029182e+00 0.000000e+00 0.000000e+00
1
Step 268000
Ar -1.027465e+00 0.000000e+00 0.000000e+00
1
Step 269000
Ar -6.472123e-01 0.000000e+00 0.000000e+00
1
Step 270000
Ar -7.734519e-01 0.000000e+00 0.000000e+00
1
Step 271000
Ar -6.883953e-01 0.000000e+00 0.000000e+00
1
Step 272000
Ar -6.867588e-01 0.000000e+00 0.000000e+00
1
Step 273000
Ar -5.698803e-01 0.000000e+00 0.000000e+00
1
Step 274000
Ar -4.596411e-01 0.000000e+00 0.000000e+00
1
Step 275000
Ar -5.895864e-01 0.000000e+00 0.000000e+00
1
Step 276000
Ar -6.371494e-01 0.000000e+00 0.000000e+00
1
Step 277000
Ar -6.797283e-01 0.000000e+00 0.000000e+00
1
Step 278000
Ar -6.924439e-01 0.000000e+00 0.000000e+00
1
Step 279000
Ar -6.226997e-01 0.000000e+00 0.000000e+00
1
Step 280000
Ar -4.938648e-01 0.000000e+00 0.000000e+00
1
Step 281000
Ar -5.130495e-01 0.000000e+00 0.000000e+00
1
Step 282000
Ar -5.379861e-01 0.000000e+00 0.000000e+00
1
Step 283000
Ar -5.384126e-01 0.000000e+00 0.000000e+00
1
Step 284000
Ar -5.594117e-01 0.000000e+00 0.000000e+00
1
Step 285000
Ar -6.569675e-01 0.000000e+00 0.000000e+00
1
Step 286000
Ar -5.787777e-01 0.000000e+00 0.000000e+00
1
Step 287000
Ar -3.980185e-01 0.000000e+00 0.000000e+00
1
Step 288000
Ar -3.538415e-01 0.000000e+00 0.000000e+00
1
Step 289000
Ar -5.067020e-01 0.000000e+00 0.000000e+00
1
Step 290000
Ar -9.871788e-02 0.000000e+00 0.000000e+00
1
Step 291000
Ar -1.914099e-01 0.000000e+00 0.000000e+00
1
Step 292000
Ar -5.373898e-01 0.000000e+00 0.000000e+00
1
Step 293000
Ar -4.433305e-01 0.000000e+00 0.000000e+00
1
Step 294000
Ar -2.957136e-01 0.000000e+00 0.000000e+00
1
Step 295000
Ar -5.654602e-01 0.000000e+00 0.000000e+00
1
Step 296000
Ar -6.369913e-01 0.000000e+00 0.000000e+00
1
Step 297000
Ar -5.378291e-01 0.000000e+00 0.000000e+00
1
Step 298000
Ar -6.935470e-01 0.000000e+00 0.000000e+00
1
Step 299000
Ar -7.665005e-01 0.000000e+00 0.000000e+00
1
Step 300000
Ar -7.952346e-01 0.000000e+00 0.000000e+00
1
Step 301000
Ar -8.306427e-01 0.000000e+00 0.000000e+00
1
Step 302000
Ar -9.080883e-01 0.000000e+00 0.000000e+00
1
Step 303000
Ar -9.599584e-01 0.000000e+00 0.000000e+00
1
Step 304000
Ar -8.933235e-01 0.000000e+00 0.000000e+00
1
Step 305000
Ar -9.610959e-01 0.000000e+00 0.000000e+00
1
Step 306000
Ar -9.560378e-01 0.000000e+00 0.000000e+00
1
Step 307000
Ar -9.487985e-01 0.000000e+00 0.000000e+00
1
Step 308000
Ar -9.109264e-01 0.000000e+00 0.000000e+00
1
Step 309000
Ar -9.692119e-01 0.000000e+00 0.000000e+00
1
Step 310000
Ar -9.607431e-01 0.000000e+00 0.000000e+00
1
Step 311000
Ar -9.590991e-01 0.000000e+00 0.000000e+00
1
Step 312000
Ar -9.856151e-01 0.000000e+00 0.000000e+00
1
Step 313000
Ar -9.570571e-01 0.000000e+00 0.000000e+00
1
Step 314000
Ar -9.535423e-01 0.000000e+00 0.000000e+00
1
Step 315000
Ar -9.223758e-01 0.000000e+00 0.000000e+00
1
Step 316000
Ar -9.393192e-01 0.000000e+00 0.000000e+00
1
Step 317000
Ar -1.021302e+00 0.000000e+00 0.000000e+00
1
Step 318000
Ar -1.038034e+00 0.000000e+00 0.000000e+00
1
Step 319000
Ar -1.025087e+00 0.000000e+00 0.000000e+00
1
Step 320000
Ar -1.157776e+00 0.000000e+00 0.000000e+00
1
Step 321000
Ar -1.152912e+00 0.000000e+00 0.000000e+00
1
Step 322000
Ar -9.606435e-01 0.000000e+00 0.000000e+00
1
Step 323000
Ar -1.309157e+00 0.000000e+00 0.000000e+00
1
Step 324000
Ar -1.089037e+00 0.000000e+00 0.000000e+00
1
Step 325000
Ar -1.083325e+00 0.000000e+00 0.000000e+00
1
Step 326000
Ar -1.303293e+00 0.000000e+00 0.000000e+00
1
Step 327000
Ar -1.194699e+00 0.000000e+00 0.000000e+00
1
Step 328000
Ar -1.266101e+00 0.000000e+00 0.000000e+00
1
Step 329000
Ar -1.263179e+00 0.000000e+00 0.000000e+00
1
Step 330000
Ar -1.334328e+00 0.000000e+00 0.000000e+00
1
Step 331000
Ar -1.329133e+00 0.000000e+00 0.000000e+00
1
Step 332000
Ar -1.359696e+00 0.000000e+00 0.000000e+00
1
Step 333000
Ar -1.440775e+00 0.000000e+00 0.000000e+00
1
Step 334000
Ar -1.444946e+00 0.000000e+00 0.000000e+00
1
Step 335000
Ar -1.411983e+00 0.000000e+00 0.000000e+00
1
Step 336000
Ar -1.400544e+00 0.000000e+00 0.000000e+00
1
Step 337000
Ar -1.324063e+00 0.000000e+00 0.000000e+00
1
Step 338000
Ar -1.162829e+00 0.000000e+00 0.000000e+00
1
Step 339000
Ar -1.162942e+00 0.000000e+00 0.000000e+00
1
Step 340000
Ar -1.156842e+00 0.000000e+00 0.000000e+00
1
Step 341000
Ar -1.154167e+00 0.000000e+00 0.000000e+00
1
Step 342000
Ar -1.154322e+00 0.000000e+00 0.000000e+00
1
Step 343000
Ar -1.148813e+00 0.000000e+00 0.000000e+00
1
Step 344000
Ar -1.114143e+00 0.000000e+00 0.000000e+00
1
Step 345000
Ar -1.481701e+00 0.000000e+00 0.000000e+00
1
Step 346000
Ar -1.412939e+00 0.000000e+00 0.000000e+00
1
Step 347000
Ar -1.413347e+00 0.000000e+00 0.000000e+00
1
Step 348000
Ar -1.327472e+00 0.000000e+00 0.000000e+00
1
Step 349000
Ar -1.223118e+00 0.000000e+00 0.000000e+00
1
Step 350000
Ar -1.453165e+00 0.000000e+00 0.000000e+00
1
Step 351000
Ar -1.420394e+00 0.000000e+00 0.000000e+00
1
Step 352000
Ar -1.334081e+00 0.000000e+00 0.000000e+00
1
Step 353000
Ar -1.153272e+00 0.000000e+00 0.000000e+00
1
Step 354000
Ar -1.171498e+00 0.000000e+00 0.000000e+00
1
Step 355000
Ar -3.219598e-01 0.000000e+00 0.000000e+00
1
Step 356000
Ar -3.951554e-01 0.000000e+00 0.000000e+00
1
Step 357000
Ar -2.242395e-01 0.000000e+00 0.000000e+00
1
Step 358000
Ar -1.243070e-01 0.000000e+00 0.000000e+00
1
Step 359000
Ar 1.846728e-01 0.000000e+00 0.000000e+00
1
Step 360000
Ar 5.318988e-02 0.000000e+00 0.000000e+00
1
Step 361000
Ar 1.327665e-01 0.000000e+00 0.000000e+00
1
Step 362000
Ar 4.082690e-01 0.000000e+00 0.000000e+00
1
Step 363000
Ar 4.364054e-01 0.000000e+00 0.000000e+00
1
Step 364000
Ar 4.666796e-01 0.000000e+00 0.000000e+00
1
Step 365000
Ar 4.187872e-01 0.000000e+00 0.000000e+00
1
Step 366000
Ar 4.550281e-01 0.000000e+00 0.000000e+00
1
Step 367000
Ar 4.596868e-01 0.000000e+00 0.000000e+00
1
Step 368000
Ar 6.540818e-01 0.000000e+00 0.000000e+00
1
Step 369000
Ar 1.106893e+00 0.000000e+00 0.000000e+00
1
Step 370000
Ar 1.258567e+00 0.000000e+00 0.000000e+00
1
Step 371000
Ar 1.280432e+00 0.000000e+00 0.000000e+00
1
Step 372000
Ar 1.294297e+00 0.000000e+00 0.000000e+00
1
Step 373000
Ar 1.250338e+00 0.000000e+00 0.000000e+00
1
Step 374000
Ar 1.248294e+00 0.000000e+00 0.000000e+00
1
Step 375000
Ar 1.075016e+00 0.000000e+00 0.000000e+00
1
Step 376000
Ar 1.076890e+00 0.000000e+00 0.000000e+00
1
Step 377000
Ar 1.070670e+00 0.000000e+00 0.000000e+00
1
Step 378000
Ar 1.089254e+00 0.000000e+00 0.000000e+00
1
Step 379000
Ar 1.025253e+00 0.000000e+00 0.000000e+00
1
Step 380000
Ar 1.031607e+00 0.000000e+00 0.000000e+00
1
Step 381000
Ar 1.217176e+00 0.000000e+00 0.000000e+00
1
Step 382000
Ar 1.222975e+00 0.000000e+00 0.000000e+00
1
Step 383000
Ar 1.223151e+00 0.000000e+00 0.000000e+00
1
Step 384000
Ar 8.150401e-01 0.000000e+00 0.000000e+00
1
Step 385000
Ar 8.125324e-01 0.000000e+00 0.000000e+00
1
Step 386000
Ar 1.053838e+00 0.000000e+00 0.000000e+00
1
Step 387000
Ar 1.035305e+00 0.000000e+00 0.000000e+00
1
Step 388000
Ar 1.029495e+00 0.000000e+00 0.000000e+00
1
Step 389000
Ar 8.463260e-01 0.000000e+00 0.000000e+00
1
Step 390000
Ar 8.440256e-01 0.000000e+00 0.000000e+00
1
Step 391000
Ar 8.461160e-01 0.000000e+00 0.000000e+00
1
Step 392000
Ar 8.482375e-01 0.000000e+00 0.000000e+00
1
Step 393000
Ar 8.605669e-01 0.000000e+00 0.000000e+00
1
Step 394000
Ar 8.140417e-01 0.000000e+00 0.000000e+00
1
Step 395000
Ar 8.126005e-01 0.000000e+00 0.000000e+00
1
Step 396000
Ar 8.423420e-01 0.000000e+00 0.000000e+00
1
Step 397000
Ar 8.587970e-01 0.000000e+00 0.000000e+00
1
Step 398000
Ar 9.836240e-01 0.000000e+00 0.000000e+00
1
Step 399000
Ar 9.933549e-01 0.000000e+00 0.000000e+00
1
Step 400000
Ar 1.001034e+00 0.000000e+00 0.000000e+00
1
Step 401000
Ar 9.914763e-01 0.000000e+00 0.000000e+00
1
Step 402000
Ar 9.313196e-01 0.000000e+00 0.000000e+00
1
Step 403000
Ar 9.331436e-01 0.000000e+00 0.000000e+00
1
Step 404000
Ar 7.731664e-01 0.000000e+00 0.000000e+00
1
Step 405000
Ar 7.688892e-01 0.000000e+00 0.000000e+00
1
Step 406000
Ar 7.888739e-01 0.000000e+00 0.000000e+00
1
Step 407000
Ar 6.988644e-01 0.000000e+00 0.000000e+00
1
Step 408000
Ar 7.468521e-01 0.000000e+00 0.000000e+00
1
Step 409000
Ar 9.170419e-01 0.000000e+00 0.000000e+00
1
Step 410000
Ar 8.362365e-01 0.000000e+00 0.000000e+00
1
Step 411000
Ar 1.031942e+00 0.000000e+00 0.000000e+00
1
Step 412000
Ar 1.038740e+00 0.000000e+00 0.000000e+00
1
Step 413000
Ar 7.974071e-01 0.000000e+00 0.000000e+00
1
Step 414000
Ar 6.357598e-01 0.000000e+00 0.000000e+00
1
Step 415000
Ar 5.414272e-01 0.000000e+00 0.000000e+00
1
Step 416000
Ar 5.075325e-01 0.000000e+00 0.000000e+00
1
Step 417000
Ar 7.638561e-01 0.000000e+00 0.000000e+00
1
Step 418000
Ar 7.530765e-01 0.000000e+00 0.000000e+00
1
Step 419000
Ar 6.053762e-01 0.000000e+00 0.000000e+00
1
Step 420000
Ar 5.875184e-01 0.000000e+00 0.000000e+00
1
Step 421000
Ar 6.102287e-01 0.000000e+00 0.000000e+00
1
Step 422000
Ar 6.714051e-01 0.000000e+00 0.000000e+00
1
Step 423000
Ar 7.024814e-01 0.000000e+00 0.000000e+00
1
Step 424000
Ar 7.013280e-01 0.000000e+00 0.000000e+00
1
Step 425000
Ar 7.035471e-01 0.000000e+00 0.000000e+00
1
Step 426000
Ar 7.040387e-01 0.000000e+00 0.000000e+00
1
Step 427000
Ar 7.080164e-01 0.000000e+00 0.000000e+00
1
Step 428000
Ar 4.759508e-01 0.000000e+00 0.000000e+00
1
Step 429000
Ar 5.557803e-01 0.000000e+00 0.000000e+00
1
Step 430000
Ar 3.491882e-01 0.000000e+00 0.000000e+00
1
Step 431000
Ar 3.483473e-01 0.000000e+00 0.000000e+00
1
Step 432000
Ar 2.943082e-01 0.000000e+00 0.000000e+00
1
Step 433000
Ar 4.504542e-01 0.000000e+00 0.000000e+00
1
Step 434000
Ar 3.371436e-01 0.000000e+00 0.000000e+00
1
Step 435000
Ar 4.561767e-01 0.000000e+00 0.000000e+00
1
Step 436000
Ar 4.527598e-01 0.000000e+00 0.000000e+00
1
Step 437000
Ar 4.990568e-01 0.000000e+00 0.000000e+00
1
Step 438000
Ar 5.241400e-01 0.000000e+00 0.000000e+00
1
Step 439000
Ar 7.713318e-01 0.000000e+00 0.000000e+00
1
Step 440000
Ar 7.897986e-01 0.000000e+00 0.000000e+00
1
Step 441000
Ar 9.164237e-01 0.000000e+00 0.000000e+00
1
Step 442000
Ar 9.172067e-01 0.000000e+00 0.000000e+00
1
Step 443000
Ar 1.019323e+00 0.000000e+00 0.000000e+00
1
Step 444000
Ar 1.024664e+00 0.000000e+00 0.000000e+00
1
Step 445000
Ar 1.030625e+00 0.000000e+00 0.000000e+00
1
Step 446000
Ar 9.522254e-01 0.000000e+00 0.000000e+00
1
Step 447000
Ar 9.475389e-01 0.000000e+00 0.000000e+00
1
Step 448000
Ar 9.501819e-01 0.000000e+00 0.000000e+00
1
Step 449000
Ar 8.413597e-01 0.000000e+00 0.000000e+00
1
Step 450000
Ar 1.016523e+00 0.000000e+00 0.000000e+00
1
Step 451000
Ar 1.048044e+00 0.000000e+00 0.000000e+00
1
Step 452000
Ar 1.354735e+00 0.000000e+00 0.000000e+00
1
Step 453000
Ar 1.305943e+00 0.000000e+00 0.000000e+00
1
Step 454000
Ar 1.361191e+00 0.000000e+00 0.000000e+00
1
Step 455000
Ar 1.176576e+00 0.000000e+00 0.000000e+00
1
Step 456000
Ar 1.194731e+00 0.000000e+00 0.000000e+00
1
Step 457000
Ar 1.124311e+00 0.000000e+00 0.000000e+00
1
Step 458000
Ar 9.602140e-01 0.000000e+00 0.000000e+00
1
Step 459000
Ar 9.657488e-01 0.000000e+00 0.000000e+00
1
Step 460000
Ar 9.687008e-01 0.000000e+00 0.000000e+00
1
Step 461000
Ar 8.251291e-01 0.000000e+00 0.000000e+00
1
Step 462000
Ar 9.301991e-01 0.000000e+00 0.000000e+00
1
Step 463000
Ar 7.027574e-01 0.000000e+00 0.000000e+00
1
Step 464000
Ar 7.422710e-01 0.000000e+00 0.000000e+00
1
Step 465000
Ar 6.850920e-01 0.000000e+00 0.000000e+00
1
Step 466000
Ar 6.714404e-01 0.000000e+00 0.000000e+00
1
Step 467000
Ar 7.542329e-01 0.000000e+00 0.000000e+00
1
Step 468000
Ar 8.770801e-01 0.000000e+00 0.000000e+00
1
Step 469000
Ar 8.229973e-01 0.000000e+00 0.000000e+00
1
Step 470000
Ar 1.127133e+00 0.000000e+00 0.000000e+00
1
Step 471000
Ar 1.175951e+00 0.000000e+00 0.000000e+00
1
Step 472000
Ar 1.152983e+00 0.000000e+00 0.000000e+00
1
Step 473000
Ar 1.146001e+00 0.000000e+00 0.000000e+00
1
Step 474000
Ar 1.168132e+00 0.000000e+00 0.000000e+00
1
Step 475000
Ar 1.373060e+00 0.000000e+00 0.000000e+00
1
Step 476000
Ar 1.283064e+00 0.000000e+00 0.000000e+00
1
Step 477000
Ar 1.224404e+00 0.000000e+00 0.000000e+00
1
Step 478000
Ar 1.202843e+00 0.000000e+00 0.000000e+00
1
Step 479000
Ar 1.097642e+00 0.000000e+00 0.000000e+00
1
Step 480000
Ar 1.122546e+00 0.000000e+00 0.000000e+00
1
Step 481000
Ar 1.112728e+00 0.000000e+00 0.000000e+00
1
Step 482000
Ar 1.123706e+00 0.000000e+00 0.000000e+00
1
Step 483000
Ar 1.112727e+00 0.000000e+00 0.000000e+00
1
Step 484000
Ar 1.154003e+00 0.000000e+00 0.000000e+00
1
Step 485000
Ar 1.375006e+00 0.000000e+00 0.000000e+00
1
Step 486000
Ar 1.314057e+00 0.000000e+00 0.000000e+00
1
Step 487000
Ar 1.405004e+00 0.000000e+00 0.000000e+00
1
Step 488000
Ar 1.315987e+00 0.000000e+00 0.000000e+00
1
Step 489000
Ar 1.264132e+00 0.000000e+00 0.000000e+00
1
Step 490000
Ar 1.318249e+00 0.000000e+00 0.000000e+00
1
Step 491000
Ar 1.281289e+00 0.000000e+00 0.000000e+00
1
Step 492000
Ar 1.127807e+00 0.000000e+00 0.000000e+00
1
Step 493000
Ar 1.262448e+00 0.000000e+00 0.000000e+00
1
Step 494000
Ar 1.405063e+00 0.000000e+00 0.000000e+00
1
Step 495000
Ar 1.461910e+00 0.000000e+00 0.000000e+00
1
Step 496000
Ar 1.474448e+00 0.000000e+00 0.000000e+00
1
Step 497000
Ar 1.438235e+00 0.000000e+00 0.000000e+00
1
Step 498000
Ar 1.317182e+00 0.000000e+00 0.000000e+00
1
Step 499000
Ar 1.422505e+00 0.000000e+00 0.000000e+00
1
Step 500000
Ar 1.399293e+00 0.000000e+00 0.000000e+00
1
Step 501000
Ar 1.421822e+00 0.000000e+00 0.000000e+00
1
Step 502000
Ar 1.205156e+00 0.000000e+00 0.000000e+00
1
Step 503000
Ar 1.203982e+00 0.000000e+00 0.000000e+00
1
Step 504000
Ar 1.149162e+00 0.000000e+00 0.000000e+00
1
Step 505000
Ar 8.370723e-01 0.000000e+00 0.000000e+00
1
Step 506000
Ar 9.030423e-01 0.000000e+00 0.000000e+00
1
Step 507000
Ar 8.551088e-01 0.000000e+00 0.000000e+00
1
Step 508000
Ar 8.537282e-01 0.000000e+00 0.000000e+00
1
Step 509000
Ar 8.520886e-01 0.000000e+00 0.000000e+00
1
Step 510000
Ar 8.574485e-01 0.000000e+00 0.000000e+00
1
Step 511000
Ar 8.537994e-01 0.000000e+00 0.000000e+00
1
Step 512000
Ar 1.200529e+00 0.000000e+00 0.000000e+00
1
Step 513000
Ar 1.186200e+00 0.000000e+00 0.000000e+00
1
Step 514000
Ar 1.175929e+00 0.000000e+00 0.000000e+00
1
Step 515000
Ar 1.232624e+00 0.000000e+00 0.000000e+00
1
Step 516000
Ar 1.174801e+00 0.000000e+00 0.000000e+00
1
Step 517000
Ar 1.171200e+00 0.000000e+00 0.000000e+00
1
Step 518000
Ar 1.169820e+00 0.000000e+00 0.000000e+00
1
Step 519000
Ar 1.168343e+00 0.000000e+00 0.000000e+00
1
Step 520000
Ar 1.301097e+00 0.000000e+00 0.000000e+00
1
Step 521000
Ar 1.532181e+00 0.000000e+00 0.000000e+00
1
Step 522000
Ar 1.368047e+00 0.000000e+00 0.000000e+00
1
Step 523000
Ar 1.366110e+00 0.000000e+00 0.000000e+00
1
Step 524000
Ar 1.367716e+00 0.000000e+00 0.000000e+00
1
Step 525000
Ar 1.332040e+00 0.000000e+00 0.000000e+00
1
Step 526000
Ar 1.367654e+00 0.000000e+00 0.000000e+00
1
Step 527000
Ar 1.258681e+00 0.000000e+00 0.000000e+00
1
Step 528000
Ar 1.216056e+00 0.000000e+00 0.000000e+00
1
Step 529000
Ar 1.220248e+00 0.000000e+00 0.000000e+00
1
Step 530000
Ar 1.224724e+00 0.000000e+00 0.000000e+00
1
Step 531000
Ar 1.282144e+00 0.000000e+00 0.000000e+00
1
Step 532000
Ar 1.474888e+00 0.000000e+00 0.000000e+00
1
Step 533000
Ar 1.487083e+00 0.000000e+00 0.000000e+00
1
Step 534000
Ar 1.484462e+00 0.000000e+00 0.000000e+00
1
Step 535000
Ar 1.523218e+00 0.000000e+00 0.000000e+00
1
Step 536000
Ar 1.143920e+00 0.000000e+00 0.000000e+00
1
Step 537000
Ar 1.201775e+00 0.000000e+00 0.000000e+00
1
Step 538000
Ar 9.803239e-01 0.000000e+00 0.000000e+00
1
Step 539000
Ar 1.019190e+00 0.000000e+00 0.000000e+00
1
Step 540000
Ar 1.020238e+00 0.000000e+00 0.000000e+00
1
Step 541000
Ar 9.492181e-01 0.000000e+00 0.000000e+00
1
Step 542000
Ar 9.873775e-01 0.000000e+00 0.000000e+00
1
Step 543000
Ar 1.073376e+00 0.000000e+00 0.000000e+00
1
Step 544000
Ar 1.104911e+00 0.000000e+00 0.000000e+00
1
Step 545000
Ar 8.344411e-01 0.000000e+00 0.000000e+00
1
Step 546000
Ar 8.273994e-01 0.000000e+00 0.000000e+00
1
Step 547000
Ar 8.280888e-01 0.000000e+00 0.000000e+00
1
Step 548000
Ar 1.002225e+00 0.000000e+00 0.000000e+00
1
Step 549000
Ar 9.691332e-01 0.000000e+00 0.000000e+00
1
Step 550000
Ar 1.010037e+00 0.000000e+00 0.000000e+00
1
Step 551000
Ar 9.807317e-01 0.000000e+00 0.000000e+00
1
Step 552000
Ar 5.772987e-01 0.000000e+00 0.000000e+00
1
Step 553000
Ar 5.779502e-01 0.000000e+00 0.000000e+00
1
Step 554000
Ar 5.760095e-01 0.000000e+00 0.000000e+00
1
Step 555000
Ar 5.358826e-01 0.000000e+00 0.000000e+00
1
Step 556000
Ar 5.504821e-01 0.000000e+00 0.000000e+00
1
Step 557000
Ar 3.860199e-01 0.000000e+00 0.000000e+00
1
Step 558000
Ar 3.451488e-01 0.000000e+00 0.000000e+00
1
Step 559000
Ar 3.461028e-01 0.000000e+00 0.000000e+00
1
Step 560000
Ar 2.699255e-01 0.000000e+00 0.000000e+00
1
Step 561000
Ar 2.699910e-01 0.000000e+00 0.000000e+00
1
Step 562000
Ar 2.812787e-01 0.000000e+00 0.000000e+00
1
Step 563000
Ar 3.483210e-01 0.000000e+00 0.000000e+00
1
Step 564000
Ar 2.909146e-01 0.000000e+00 0.000000e+00
1
Step 565000
Ar 2.930769e-01 0.000000e+00 0.000000e+00
1
Step 566000
Ar 4.141881e-01 0.000000e+00 0.000000e+00
1
Step 567000
Ar 1.433047e-01 0.000000e+00 0.000000e+00
1
Step 568000
Ar -3.007780e-01 0.000000e+00 0.000000e+00
1
Step 569000
Ar -2.102845e-01 0.000000e+00 0.000000e+00
1
Step 570000
Ar -3.870155e-01 0.000000e+00 0.000000e+00
1
Step 571000
Ar -4.205419e-01 0.000000e+00 0.000000e+00
1
Step 572000
Ar -6.473572e-01 0.000000e+00 0.000000e+00
1
Step 573000
Ar -7.722167e-01 0.000000e+00 0.000000e+00
1
Step 574000
Ar -9.339766e-01 0.000000e+00 0.000000e+00
1
Step 575000
Ar -8.512094e-01 0.000000e+00 0.000000e+00
1
Step 576000
Ar -8.621163e-01 0.000000e+00 0.000000e+00
1
Step 577000
Ar -8.758375e-01 0.000000e+00 0.000000e+00
1
Step 578000
Ar -8.746139e-01 0.000000e+00 0.000000e+00
1
Step 579000
Ar -8.642290e-01 0.000000e+00 0.000000e+00
1
Step 580000
Ar -8.443415e-01 0.000000e+00 0.000000e+00
1
Step 581000
Ar -9.795236e-01 0.000000e+00 0.000000e+00
1
Step 582000
Ar -7.990789e-01 0.000000e+00 0.000000e+00
1
Step 583000
Ar -7.986566e-01 0.000000e+00 0.000000e+00
1
Step 584000
Ar -6.051755e-01 0.000000e+00 0.000000e+00
1
Step 585000
Ar -4.679375e-01 0.000000e+00 0.000000e+00
1
Step 586000
Ar -4.704617e-01 0.000000e+00 0.000000e+00
1
Step 587000
Ar -4.721285e-01 0.000000e+00 0.000000e+00
1
Step 588000
Ar -4.390964e-01 0.000000e+00 0.000000e+00
1
Step 589000
Ar -4.387759e-01 0.000000e+00 0.000000e+00
1
Step 590000
Ar -4.704982e-01 0.000000e+00 0.000000e+00
1
Step 591000
Ar -7.053011e-01 0.000000e+00 0.000000e+00
1
Step 592000
Ar -7.052009e-01 0.000000e+00 0.000000e+00
1
Step 593000
Ar -7.019732e-01 0.000000e+00 0.000000e+00
1
Step 594000
Ar -7.012993e-01 0.000000e+00 0.000000e+00
1
Step 595000
Ar -7.473433e-01 0.000000e+00 0.000000e+00
1
Step 596000
Ar -7.382916e-01 0.000000e+00 0.000000e+00
1
Step 597000
Ar -7.579332e-01 0.000000e+00 0.000000e+00
1
Step 598000
Ar -7.307169e-01 0.000000e+00 0.000000e+00
1
Step 599000
Ar -4.752610e-01 0.000000e+00 0.000000e+00
1
Step 600000
Ar -4.336665e-01 0.000000e+00 0.000000e+00
1
Step 601000
Ar -4.671566e-01 0.000000e+00 0.000000e+00
1
Step 602000
Ar -6.928183e-01 0.000000e+00 0.000000e+00
1
Step 603000
Ar -6.976548e-01 0.000000e+00 0.000000e+00
1
Step 604000
Ar -6.482053e-01 0.000000e+00 0.000000e+00
1
Step 605000
Ar -5.190424e-01 0.000000e+00 0.000000e+00
1
Step 606000
Ar -6.063557e-01 0.000000e+00 0.000000e+00
1
Step 607000
Ar -6.548439e-01 0.000000e+00 0.000000e+00
1
Step 608000
Ar -5.766387e-01 0.000000e+00 0.000000e+00
1
Step 609000
Ar -6.778398e-01 0.000000e+00 0.000000e+00
1
Step 610000
Ar -6.687397e-01 0.000000e+00 0.000000e+00
1
Step 611000
Ar -6.852866e-01 0.000000e+00 0.000000e+00
1
Step 612000
Ar -5.666470e-01 0.000000e+00 0.000000e+00
1
Step 613000
Ar -7.363661e-01 0.000000e+00 0.000000e+00
1
Step 614000
Ar -7.255490e-01 0.000000e+00 0.000000e+00
1
Step 615000
Ar -7.383936e-01 0.000000e+00 0.000000e+00
1
Step 616000
Ar -4.936820e-01 0.000000e+00 0.000000e+00
1
Step 617000
Ar -5.618779e-01 0.000000e+00 0.000000e+00
1
Step 618000
Ar -4.375655e-01 0.000000e+00 0.000000e+00
1
Step 619000
Ar -3.517682e-01 0.000000e+00 0.000000e+00
1
Step 620000
Ar -2.268095e-01 0.000000e+00 0.000000e+00
1
Step 621000
Ar -2.064907e-01 0.000000e+00 0.000000e+00
1
Step 622000
Ar -3.757589e-01 0.000000e+00 0.000000e+00
1
Step 623000
Ar -3.558400e-01 0.000000e+00 0.000000e+00
1
Step 624000
Ar -3.536196e-01 0.000000e+00 0.000000e+00
1
Step 625000
Ar -3.593455e-01 0.000000e+00 0.000000e+00
1
Step 626000
Ar -3.423846e-01 0.000000e+00 0.000000e+00
1
Step 627000
Ar -1.503258e-01 0.000000e+00 0.000000e+00
1
Step 628000
Ar -7.596852e-02 0.000000e+00 0.000000e+00
1
Step 629000
Ar -1.296490e-01 0.000000e+00 0.000000e+00
1
Step 630000
Ar 6.408908e-03 0.000000e+00 0.000000e+00
1
Step 631000
Ar -7.191676e-02 0.000000e+00 0.000000e+00
1
Step 632000
Ar 8.663879e-02 0.000000e+00 0.000000e+00
1
Step 633000
Ar 2.327867e-01 0.000000e+00 0.000000e+00
1
Step 634000
Ar 2.224510e-01 0.000000e+00 0.000000e+00
1
Step 635000
Ar 2.248699e-01 0.000000e+00 0.000000e+00
1
Step 636000
Ar 2.227723e-01 0.000000e+00 0.000000e+00
1
Step 637000
Ar 1.735206e-01 0.000000e+00 0.000000e+00
1
Step 638000
Ar 8.431077e-02 0.000000e+00 0.000000e+00
1
Step 639000
Ar 1.718758e-01 0.000000e+00 0.000000e+00
1
Step 640000
Ar 2.691562e-01 0.000000e+00 0.000000e+00
1
Step 641000
Ar 3.489986e-01 0.000000e+00 0.000000e+00
1
Step 642000
Ar 2.941402e-01 0.000000e+00 0.000000e+00
1
Step 643000
Ar 3.663398e-01 0.000000e+00 0.000000e+00
1
Step 644000
Ar 3.625400e-01 0.000000e+00 0.000000e+00
1
Step 645000
Ar 6.403026e-01 0.000000e+00 0.000000e+00
1
Step 646000
Ar 5.863981e-01 0.000000e+00 0.000000e+00
1
Step 647000
Ar 6.142489e-01 0.000000e+00 0.000000e+00
1
Step 648000
Ar 4.920412e-01 0.000000e+00 0.000000e+00
1
Step 649000
Ar 4.560090e-01 0.000000e+00 0.000000e+00
1
Step 650000
Ar 4.731681e-01 0.000000e+00 0.000000e+00
1
Step 651000