1
Step 120000
Ar 1.061601e+00 0.000000e+00 0.000000e+00
1
Step 121000
Ar 9.376028e-01 0.000000e+00 0.000000e+00
1
Step 122000
Ar 1.063698e+00 0.000000e+00 0.000000e+00
1
Step 123000
Ar 9.593074e-01 0.000000e+00 0.000000e+00
1
Step 124000
Ar 9.265077e-01 0.000000e+00 0.000000e+00
1
Step 125000
Ar 9.922380e-01 0.000000e+00 0.000000e+00
1
Step 126000
Ar 1.112678e+00 0.000000e+00 0.000000e+00
1
Step 127000
Ar 1.094648e+00 0.000000e+00 0.000000e+00
1
Step 128000
Ar 1.007405e+00 0.000000e+00 0.000000e+00
1
Step 129000
Ar 1.021968e+00 0.000000e+00 0.000000e+00
1
Step 130000
Ar 1.112127e+00 0.000000e+00 0.000000e+00
1
Step 131000
Ar 1.179204e+00 0.000000e+00 0.000000e+00
1
Step 132000
Ar 1.156266e+00 0.000000e+00 0.000000e+00
1
Step 133000
Ar 1.117399e+00 0.000000e+00 0.000000e+00
1
Step 134000
Ar 1.060900e+00 0.000000e+00 0.000000e+00
1
Step 135000
Ar 1.061266e+00 0.000000e+00 0.000000e+00
1
Step 136000
Ar 1.063372e+00 0.000000e+00 0.000000e+00
1
Step 137000
Ar 1.068481e+00 0.000000e+00 0.000000e+00
1
Step 138000
Ar 1.056733e+00 0.000000e+00 0.000000e+00
1
Step 139000
Ar 1.067720e+00 0.000000e+00 0.000000e+00
1
Step 140000
Ar 1.057208e+00 0.000000e+00 0.000000e+00
1
Step 141000
Ar 1.054553e+00 0.000000e+00 0.000000e+00
1
Step 142000
Ar 1.064455e+00 0.000000e+00 0.000000e+00
1
Step 143000
Ar 1.069808e+00 0.000000e+00 0.000000e+00
1
Step 144000
Ar 1.064839e+00 0.000000e+00 0.000000e+00
1
Step 145000
Ar 1.054846e+00 0.000000e+00 0.000000e+00
1
Step 146000
Ar 1.056123e+00 0.000000e+00 0.000000e+00
1
Step 147000
Ar 1.056421e+00 0.000000e+00 0.000000e+00
1
Step 148000
Ar 1.060201e+00 0.000000e+00 0.000000e+00
1
Step 149000
Ar 1.057744e+00 0.000000e+00 0.000000e+00
1
Step 150000
Ar 1.056218e+00 0.000000e+00 0.000000e+00
1
Step 151000
Ar 1.053251e+00 0.000000e+00 0.000000e+00
1
Step 152000
Ar 1.056120e+00 0.000000e+00 0.000000e+00
1
Step 153000
Ar 1.056080e+00 0.000000e+00 0.000000e+00
1
Step 154000
Ar 9.270818e-01 0.000000e+00 0.000000e+00
1
Step 155000
Ar 8.333073e-01 0.000000e+00 0.000000e+00
1
Step 156000
Ar 8.233651e-01 0.000000e+00 0.000000e+00
1
Step 157000
Ar 9.438978e-01 0.000000e+00 0.000000e+00
1
Step 158000
Ar 9.466732e-01 0.000000e+00 0.000000e+00
1
Step 159000
Ar 9.089299e-01 0.000000e+00 0.000000e+00
1
Step 160000
Ar 9.266535e-01 0.000000e+00 0.000000e+00
1
Step 161000
Ar 8.604571e-01 0.000000e+00 0.000000e+00
1
Step 162000
Ar 9.421780e-01 0.000000e+00 0.000000e+00
1
Step 163000
Ar 9.532162e-01 0.000000e+00 0.000000e+00
1
Step 164000
Ar 8.886451e-01 0.000000e+00 0.000000e+00
1
Step 165000
Ar 7.571226e-01 0.000000e+00 0.000000e+00
1
Step 166000
Ar 8.955432e-01 0.000000e+00 0.000000e+00
1
Step 167000
Ar 9.295316e-01 0.000000e+00 0.000000e+00
1
Step 168000
Ar 7.774367e-01 0.000000e+00 0.000000e+00
1
Step 169000
Ar 9.499351e-01 0.000000e+00 0.000000e+00
1
Step 170000
Ar 7.934006e-01 0.000000e+00 0.000000e+00
1
Step 171000
Ar 8.922343e-01 0.000000e+00 0.000000e+00
1
Step 172000
Ar 9.643421e-01 0.000000e+00 0.000000e+00
1
Step 173000
Ar 7.676893e-01 0.000000e+00 0.000000e+00
1
Step 174000
Ar 8.477689e-01 0.000000e+00 0.000000e+00
1
Step 175000
Ar 7.905127e-01 0.000000e+00 0.000000e+00
1
Step 176000
Ar 8.848332e-01 0.000000e+00 0.000000e+00
1
Step 177000
Ar 8.856570e-01 0.000000e+00 0.000000e+00
1
Step 178000
Ar 9.779197e-01 0.000000e+00 0.000000e+00
1
Step 179000
Ar 9.649176e-01 0.000000e+00 0.000000e+00
1
Step 180000
Ar 9.002483e-01 0.000000e+00 0.000000e+00
1
Step 181000
Ar 7.590497e-01 0.000000e+00 0.000000e+00
1
Step 182000
Ar 7.985611e-01 0.000000e+00 0.000000e+00
1
Step 183000
Ar 8.244229e-01 0.000000e+00 0.000000e+00
1
Step 184000
Ar 6.688559e-01 0.000000e+00 0.000000e+00
1
Step 185000
Ar 8.627835e-01 0.000000e+00 0.000000e+00
1
Step 186000
Ar 9.030524e-01 0.000000e+00 0.000000e+00
1
Step 187000
Ar 9.358817e-01 0.000000e+00 0.000000e+00
1
Step 188000
Ar 9.169019e-01 0.000000e+00 0.000000e+00
1
Step 189000
Ar 9.479787e-01 0.000000e+00 0.000000e+00
1
Step 190000
Ar 9.005605e-01 0.000000e+00 0.000000e+00
1
Step 191000
Ar 9.685700e-01 0.000000e+00 0.000000e+00
1
Step 192000
Ar 9.067956e-01 0.000000e+00 0.000000e+00
1
Step 193000
Ar 9.242077e-01 0.000000e+00 0.000000e+00
1
Step 194000
Ar 9.186706e-01 0.000000e+00 0.000000e+00
1
Step 195000
Ar 9.486218e-01 0.000000e+00 0.000000e+00
1
Step 196000
Ar 1.025743e+00 0.000000e+00 0.000000e+00
1
Step 197000
Ar 1.024824e+00 0.000000e+00 0.000000e+00
1
Step 198000
Ar 1.014156e+00 0.000000e+00 0.000000e+00
1
Step 199000
Ar 8.003436e-01 0.000000e+00 0.000000e+00
1
Step 200000
Ar 7.763852e-01 0.000000e+00 0.000000e+00
1
Step 201000
Ar 8.066740e-01 0.000000e+00 0.000000e+00
1
Step 202000
Ar 7.528899e-01 0.000000e+00 0.000000e+00
1
Step 203000
Ar 7.712708e-01 0.000000e+00 0.000000e+00
1
Step 204000
Ar 8.306870e-01 0.000000e+00 0.000000e+00
1
Step 205000
Ar 7.924603e-01 0.000000e+00 0.000000e+00
1
Step 206000
Ar 7.831698e-01 0.000000e+00 0.000000e+00
1
Step 207000
Ar 7.816862e-01 0.000000e+00 0.000000e+00
1
Step 208000
Ar 7.814141e-01 0.000000e+00 0.000000e+00
1
Step 209000
Ar 7.965966e-01 0.000000e+00 0.000000e+00
1
Step 210000
Ar 7.770841e-01 0.000000e+00 0.000000e+00
1
Step 211000
Ar 7.913720e-01 0.000000e+00 0.000000e+00
1
Step 212000
Ar 7.396333e-01 0.000000e+00 0.000000e+00
1
Step 213000
Ar 8.465365e-01 0.000000e+00 0.000000e+00
1
Step 214000
Ar 8.653208e-01 0.000000e+00 0.000000e+00
1
Step 215000
Ar 8.678827e-01 0.000000e+00 0.000000e+00
1
Step 216000
Ar 8.697817e-01 0.000000e+00 0.000000e+00
1
Step 217000
Ar 8.704653e-01 0.000000e+00 0.000000e+00
1
Step 218000
Ar 8.657132e-01 0.000000e+00 0.000000e+00
1
Step 219000
Ar 8.705041e-01 0.000000e+00 0.000000e+00
1
Step 220000
Ar 8.689675e-01 0.000000e+00 0.000000e+00
1
Step 221000
Ar 8.691634e-01 0.000000e+00 0.000000e+00
1
Step 222000
Ar 9.111786e-01 0.000000e+00 0.000000e+00
1
Step 223000
Ar 8.983135e-01 0.000000e+00 0.000000e+00
1
Step 224000
Ar 9.028627e-01 0.000000e+00 0.000000e+00
1
Step 225000
Ar 9.083484e-01 0.000000e+00 0.000000e+00
1
Step 226000
Ar 9.127887e-01 0.000000e+00 0.000000e+00
1
Step 227000
Ar 9.041972e-01 0.000000e+00 0.000000e+00
1
Step 228000
Ar 8.983719e-01 0.000000e+00 0.000000e+00
1
Step 229000
Ar 9.628741e-01 0.000000e+00 0.000000e+00
1
Step 230000
Ar 9.467492e-01 0.000000e+00 0.000000e+00
1
Step 231000
Ar 9.583047e-01 0.000000e+00 0.000000e+00
1
Step 232000
Ar 9.633491e-01 0.000000e+00 0.000000e+00
1
Step 233000
Ar 9.645030e-01 0.000000e+00 0.000000e+00
1
Step 234000
Ar 9.627327e-01 0.000000e+00 0.000000e+00
1
Step 235000
Ar 9.602488e-01 0.000000e+00 0.000000e+00
1
Step 236000
Ar 9.594567e-01 0.000000e+00 0.000000e+00
1
Step 237000
Ar 9.616878e-01 0.000000e+00 0.000000e+00
1
Step 238000
Ar 9.565261e-01 0.000000e+00 0.000000e+00
1
Step 239000
Ar 9.630685e-01 0.000000e+00 0.000000e+00
1
Step 240000
Ar 9.639127e-01 0.000000e+00 0.000000e+00
1
Step 241000
Ar 9.590660e-01 0.000000e+00 0.000000e+00
1
Step 242000
Ar 9.638676e-01 0.000000e+00 0.000000e+00
1
Step 243000
Ar 9.595163e-01 0.000000e+00 0.000000e+00
1
Step 244000
Ar 9.594750e-01 0.000000e+00 0.000000e+00
1
Step 245000
Ar 9.602971e-01 0.000000e+00 0.000000e+00
1
Step 246000
Ar 9.609116e-01 0.000000e+00 0.000000e+00
1
Step 247000
Ar 9.369559e-01 0.000000e+00 0.000000e+00
1
Step 248000
Ar 9.357276e-01 0.000000e+00 0.000000e+00
1
Step 249000
Ar 9.371545e-01 0.000000e+00 0.000000e+00
1
Step 250000
Ar 9.350409e-01 0.000000e+00 0.000000e+00
1
Step 251000
Ar 9.412753e-01 0.000000e+00 0.000000e+00
1
Step 252000
Ar 9.379078e-01 0.000000e+00 0.000000e+00
1
Step 253000
Ar 9.351683e-01 0.000000e+00 0.000000e+00
1
Step 254000
Ar 9.363964e-01 0.000000e+00 0.000000e+00
1
Step 255000
Ar 9.350979e-01 0.000000e+00 0.000000e+00
1
Step 256000
Ar 9.375040e-01 0.000000e+00 0.000000e+00
1
Step 257000
Ar 9.370803e-01 0.000000e+00 0.000000e+00
1
Step 258000
Ar 9.200635e-01 0.000000e+00 0.000000e+00
1
Step 259000
Ar 7.529647e-01 0.000000e+00 0.000000e+00
1
Step 260000
Ar 7.965549e-01 0.000000e+00 0.000000e+00
1
Step 261000
Ar 7.981185e-01 0.000000e+00 0.000000e+00
1
Step 262000
Ar 8.353443e-01 0.000000e+00 0.000000e+00
1
Step 263000
Ar 8.480892e-01 0.000000e+00 0.000000e+00
1
Step 264000
Ar 8.450232e-01 0.000000e+00 0.000000e+00
1
Step 265000
Ar 8.934885e-01 0.000000e+00 0.000000e+00
1
Step 266000
Ar 8.959201e-01 0.000000e+00 0.000000e+00
1
Step 267000
Ar 9.009139e-01 0.000000e+00 0.000000e+00
1
Step 268000
Ar 8.951231e-01 0.000000e+00 0.000000e+00
1
Step 269000
Ar 7.015186e-01 0.000000e+00 0.000000e+00
1
Step 270000
Ar 4.080010e-01 0.000000e+00 0.000000e+00
1
Step 271000
Ar 7.056194e-01 0.000000e+00 0.000000e+00
1
Step 272000
Ar 5.682802e-01 0.000000e+00 0.000000e+00
1
Step 273000
Ar 4.496367e-01 0.000000e+00 0.000000e+00
1
Step 274000
Ar 5.541700e-01 0.000000e+00 0.000000e+00
1
Step 275000
Ar 5.165175e-01 0.000000e+00 0.000000e+00
1
Step 276000
Ar 5.650819e-01 0.000000e+00 0.000000e+00
1
Step 277000
Ar 6.063620e-01 0.000000e+00 0.000000e+00
1
Step 278000
Ar 4.960305e-01 0.000000e+00 0.000000e+00
1
Step 279000
Ar 5.758424e-01 0.000000e+00 0.000000e+00
1
Step 280000
Ar 6.085244e-01 0.000000e+00 0.000000e+00
1
Step 281000
Ar 5.908229e-01 0.000000e+00 0.000000e+00
1
Step 282000
Ar 5.253176e-01 0.000000e+00 0.000000e+00
1
Step 283000
Ar 5.600048e-02 0.000000e+00 0.000000e+00
1
Step 284000
Ar 5.864223e-01 0.000000e+00 0.000000e+00
1
Step 285000
Ar 4.976795e-01 0.000000e+00 0.000000e+00
1
Step 286000
Ar 5.872164e-01 0.000000e+00 0.000000e+00
1
Step 287000
Ar 2.413840e-01 0.000000e+00 0.000000e+00
1
Step 288000
Ar 6.018217e-01 0.000000e+00 0.000000e+00
1
Step 289000
Ar 6.255134e-01 0.000000e+00 0.000000e+00
1
Step 290000
Ar 6.171318e-01 0.000000e+00 0.000000e+00
1
Step 291000
Ar 6.221659e-01 0.000000e+00 0.000000e+00
1
Step 292000
Ar 6.188816e-01 0.000000e+00 0.000000e+00
1
Step 293000
Ar -1.138563e+00 0.000000e+00 0.000000e+00
1
Step 294000
Ar -1.244610e+00 0.000000e+00 0.000000e+00
1
Step 295000
Ar -8.562100e-01 0.000000e+00 0.000000e+00
1
Step 296000
Ar -9.933722e-01 0.000000e+00 0.000000e+00
1
Step 297000
Ar -8.943836e-01 0.000000e+00 0.000000e+00
1
Step 298000
Ar -7.534340e-01 0.000000e+00 0.000000e+00
1
Step 299000
Ar -9.075334e-01 0.000000e+00 0.000000e+00
1
Step 300000
Ar -8.626233e-01 0.000000e+00 0.000000e+00
1
Step 301000
Ar -9.269261e-01 0.000000e+00 0.000000e+00
1
Step 302000
Ar -8.621819e-01 0.000000e+00 0.000000e+00
1
Step 303000
Ar -9.294316e-01 0.000000e+00 0.000000e+00
1
Step 304000
Ar -9.124332e-01 0.000000e+00 0.000000e+00
1
Step 305000
Ar -8.021981e-01 0.000000e+00 0.000000e+00
1
Step 306000
Ar -5.393966e-01 0.000000e+00 0.000000e+00
1
Step 307000
Ar -7.955295e-01 0.000000e+00 0.000000e+00
1
Step 308000
Ar -6.574665e-01 0.000000e+00 0.000000e+00
1
Step 309000
Ar -6.404331e-01 0.000000e+00 0.000000e+00
1
Step 310000
Ar -7.533770e-01 0.000000e+00 0.000000e+00
1
Step 311000
Ar -7.263228e-01 0.000000e+00 0.000000e+00
1
Step 312000
Ar -8.809291e-01 0.000000e+00 0.000000e+00
1
Step 313000
Ar -9.158910e-01 0.000000e+00 0.000000e+00
1
Step 314000
Ar -9.044588e-01 0.000000e+00 0.000000e+00
1
Step 315000
Ar -8.315218e-01 0.000000e+00 0.000000e+00
1
Step 316000
Ar -8.323396e-01 0.000000e+00 0.000000e+00
1
Step 317000
Ar -8.320776e-01 0.000000e+00 0.000000e+00
1
Step 318000
Ar -8.347275e-01 0.000000e+00 0.000000e+00
1
Step 319000
Ar -8.330210e-01 0.000000e+00 0.000000e+00
1
Step 320000
Ar -8.301053e-01 0.000000e+00 0.000000e+00
1
Step 321000
Ar -8.346137e-01 0.000000e+00 0.000000e+00
1
Step 322000
Ar -7.459782e-01 0.000000e+00 0.000000e+00
1
Step 323000
Ar -7.583064e-01 0.000000e+00 0.000000e+00
1
Step 324000
Ar -7.547734e-01 0.000000e+00 0.000000e+00
1
Step 325000
Ar -7.556432e-01 0.000000e+00 0.000000e+00
1
Step 326000
Ar -7.680817e-01 0.000000e+00 0.000000e+00
1
Step 327000
Ar -7.514354e-01 0.000000e+00 0.000000e+00
1
Step 328000
Ar -9.442286e-01 0.000000e+00 0.000000e+00
1
Step 329000
Ar -9.458615e-01 0.000000e+00 0.000000e+00
1
Step 330000
Ar -9.347382e-01 0.000000e+00 0.000000e+00
1
Step 331000
Ar -9.160326e-01 0.000000e+00 0.000000e+00
1
Step 332000
Ar -9.346131e-01 0.000000e+00 0.000000e+00
1
Step 333000
Ar -9.381491e-01 0.000000e+00 0.000000e+00
1
Step 334000
Ar -9.471049e-01 0.000000e+00 0.000000e+00
1
Step 335000
Ar -9.421455e-01 0.000000e+00 0.000000e+00
1
Step 336000
Ar -9.211324e-01 0.000000e+00 0.000000e+00
1
Step 337000
Ar -9.048976e-01 0.000000e+00 0.000000e+00
1
Step 338000
Ar -9.210272e-01 0.000000e+00 0.000000e+00
1
Step 339000
Ar -9.245457e-01 0.000000e+00 0.000000e+00
1
Step 340000
Ar -9.451489e-01 0.000000e+00 0.000000e+00
1
Step 341000
Ar -9.335508e-01 0.000000e+00 0.000000e+00
1
Step 342000
Ar -9.366633e-01 0.000000e+00 0.000000e+00
1
Step 343000
Ar -9.190379e-01 0.000000e+00 0.000000e+00
1
Step 344000
Ar -9.417157e-01 0.000000e+00 0.000000e+00
1
Step 345000
Ar -9.393522e-01 0.000000e+00 0.000000e+00
1
Step 346000
Ar -9.262992e-01 0.000000e+00 0.000000e+00
1
Step 347000
Ar -9.370144e-01 0.000000e+00 0.000000e+00
1
Step 348000
Ar -9.373338e-01 0.000000e+00 0.000000e+00
1
Step 349000
Ar -9.133721e-01 0.000000e+00 0.000000e+00
1
Step 350000
Ar -9.375115e-01 0.000000e+00 0.000000e+00
1
Step 351000
Ar -9.364595e-01 0.000000e+00 0.000000e+00
1
Step 352000
Ar -9.235761e-01 0.000000e+00 0.000000e+00
1
Step 353000
Ar -9.195153e-01 0.000000e+00 0.000000e+00
1
Step 354000
Ar -9.202863e-01 0.000000e+00 0.000000e+00
1
Step 355000
Ar -9.134136e-01 0.000000e+00 0.000000e+00
1
Step 356000
Ar -9.376735e-01 0.000000e+00 0.000000e+00
1
Step 357000
Ar -9.386623e-01 0.000000e+00 0.000000e+00
1
Step 358000
Ar -9.161823e-01 0.000000e+00 0.000000e+00
1
Step 359000
Ar -9.326437e-01 0.000000e+00 0.000000e+00
1
Step 360000
Ar -9.248528e-01 0.000000e+00 0.000000e+00
1
Step 361000
Ar -9.405302e-01 0.000000e+00 0.000000e+00
1
Step 362000
Ar -9.153956e-01 0.000000e+00 0.000000e+00
1
Step 363000
Ar -9.100692e-01 0.000000e+00 0.000000e+00
1
Step 364000
Ar -9.280960e-01 0.000000e+00 0.000000e+00
1
Step 365000
Ar -9.234187e-01 0.000000e+00 0.000000e+00
1
Step 366000
Ar -9.424424e-01 0.000000e+00 0.000000e+00
1
Step 367000
Ar -9.469760e-01 0.000000e+00 0.000000e+00
1
Step 368000
Ar -9.321018e-01 0.000000e+00 0.000000e+00
1
Step 369000
Ar -9.423924e-01 0.000000e+00 0.000000e+00
1
Step 370000
Ar -9.098396e-01 0.000000e+00 0.000000e+00
1
Step 371000
Ar -9.053291e-01 0.000000e+00 0.000000e+00
1
Step 372000
Ar -9.865406e-01 0.000000e+00 0.000000e+00
1
Step 373000
Ar -1.033140e+00 0.000000e+00 0.000000e+00
1
Step 374000
Ar -1.027146e+00 0.000000e+00 0.000000e+00
1
Step 375000
Ar -1.097756e+00 0.000000e+00 0.000000e+00
1
Step 376000
Ar -1.190846e+00 0.000000e+00 0.000000e+00
1
Step 377000
Ar -1.073066e+00 0.000000e+00 0.000000e+00
1
Step 378000
Ar -9.844065e-01 0.000000e+00 0.000000e+00
1
Step 379000
Ar -8.675162e-01 0.000000e+00 0.000000e+00
1
Step 380000
Ar -8.706302e-01 0.000000e+00 0.000000e+00
1
Step 381000
Ar -8.855449e-01 0.000000e+00 0.000000e+00
1
Step 382000
Ar -8.720521e-01 0.000000e+00 0.000000e+00
1
Step 383000
Ar -8.658304e-01 0.000000e+00 0.000000e+00
1
Step 384000
Ar -8.807861e-01 0.000000e+00 0.000000e+00
1
Step 385000
Ar -6.418284e-01 0.000000e+00 0.000000e+00
1
Step 386000
Ar -6.328934e-01 0.000000e+00 0.000000e+00
1
Step 387000
Ar -6.026356e-01 0.000000e+00 0.000000e+00
1
Step 388000
Ar -6.444515e-01 0.000000e+00 0.000000e+00
1
Step 389000
Ar -6.575118e-01 0.000000e+00 0.000000e+00
1
Step 390000
Ar -5.286930e-01 0.000000e+00 0.000000e+00
1
Step 391000
Ar -6.555023e-01 0.000000e+00 0.000000e+00
1
Step 392000
Ar -6.173273e-01 0.000000e+00 0.000000e+00
1
Step 393000
Ar -6.350208e-01 0.000000e+00 0.000000e+00
1
Step 394000
Ar -1.128222e+00 0.000000e+00 0.000000e+00
1
Step 395000
Ar -1.100505e+00 0.000000e+00 0.000000e+00
1
Step 396000
Ar -9.713023e-01 0.000000e+00 0.000000e+00
1
Step 397000
Ar -9.708319e-01 0.000000e+00 0.000000e+00
1
Step 398000
Ar -9.708368e-01 0.000000e+00 0.000000e+00
1
Step 399000
Ar -1.179572e+00 0.000000e+00 0.000000e+00
1
Step 400000
Ar -1.030745e+00 0.000000e+00 0.000000e+00
1
Step 401000
Ar -1.136225e+00 0.000000e+00 0.000000e+00
1
Step 402000
Ar -1.148825e+00 0.000000e+00 0.000000e+00
1
Step 403000
Ar -1.175436e+00 0.000000e+00 0.000000e+00
1
Step 404000
Ar -1.182801e+00 0.000000e+00 0.000000e+00
1
Step 405000
Ar -1.144225e+00 0.000000e+00 0.000000e+00
1
Step 406000
Ar -1.191601e+00 0.000000e+00 0.000000e+00
1
Step 407000
Ar -1.245711e+00 0.000000e+00 0.000000e+00
1
Step 408000
Ar -1.215832e+00 0.000000e+00 0.000000e+00
1
Step 409000
Ar -1.208821e+00 0.000000e+00 0.000000e+00
1
Step 410000
Ar -1.215868e+00 0.000000e+00 0.000000e+00
1
Step 411000
Ar -1.239315e+00 0.000000e+00 0.000000e+00
1
Step 412000
Ar -1.219227e+00 0.000000e+00 0.000000e+00
1
Step 413000
Ar -1.210519e+00 0.000000e+00 0.000000e+00
1
Step 414000
Ar -1.294961e+00 0.000000e+00 0.000000e+00
1
Step 415000
Ar -1.302095e+00 0.000000e+00 0.000000e+00
1
Step 416000
Ar -1.314867e+00 0.000000e+00 0.000000e+00
1
Step 417000
Ar -1.357135e+00 0.000000e+00 0.000000e+00
1
Step 418000
Ar -1.290265e+00 0.000000e+00 0.000000e+00
1
Step 419000
Ar -1.322261e+00 0.000000e+00 0.000000e+00
1
Step 420000
Ar -1.227566e+00 0.000000e+00 0.000000e+00
1
Step 421000
Ar -1.210871e+00 0.000000e+00 0.000000e+00
1
Step 422000
Ar -1.220647e+00 0.000000e+00 0.000000e+00
1
Step 423000
Ar -1.211298e+00 0.000000e+00 0.000000e+00
1
Step 424000
Ar -1.216057e+00 0.000000e+00 0.000000e+00
1
Step 425000
Ar -1.213005e+00 0.000000e+00 0.000000e+00
1
Step 426000
Ar -1.208073e+00 0.000000e+00 0.000000e+00
1
Step 427000
Ar -1.215003e+00 0.000000e+00 0.000000e+00
1
Step 428000
Ar -1.214736e+00 0.000000e+00 0.000000e+00
1
Step 429000
Ar -1.209762e+00 0.000000e+00 0.000000e+00
1
Step 430000
Ar -8.068473e-01 0.000000e+00 0.000000e+00
1
Step 431000
Ar -8.090402e-01 0.000000e+00 0.000000e+00
1
Step 432000
Ar -8.032309e-01 0.000000e+00 0.000000e+00
1
Step 433000
Ar -8.048198e-01 0.000000e+00 0.000000e+00
1
Step 434000
Ar -8.021541e-01 0.000000e+00 0.000000e+00
1
Step 435000
Ar -8.073510e-01 0.000000e+00 0.000000e+00
1
Step 436000
Ar -8.050662e-01 0.000000e+00 0.000000e+00
1
Step 437000
Ar -8.035667e-01 0.000000e+00 0.000000e+00
1
Step 438000
Ar -8.078027e-01 0.000000e+00 0.000000e+00
1
Step 439000
Ar -7.202362e-01 0.000000e+00 0.000000e+00
1
Step 440000
Ar -7.165917e-01 0.000000e+00 0.000000e+00
1
Step 441000
Ar -7.410974e-01 0.000000e+00 0.000000e+00
1
Step 442000
Ar -7.564271e-01 0.000000e+00 0.000000e+00
1
Step 443000
Ar -7.566123e-01 0.000000e+00 0.000000e+00
1
Step 444000
Ar -7.594749e-01 0.000000e+00 0.000000e+00
1
Step 445000
Ar -7.519239e-01 0.000000e+00 0.000000e+00
1
Step 446000
Ar -7.466225e-01 0.000000e+00 0.000000e+00
1
Step 447000
Ar -7.279022e-01 0.000000e+00 0.000000e+00
1
Step 448000
Ar -7.540494e-01 0.000000e+00 0.000000e+00
1
Step 449000
Ar -1.266419e+00 0.000000e+00 0.000000e+00
1
Step 450000
Ar -6.461536e-01 0.000000e+00 0.000000e+00
1
Step 451000
Ar -6.141357e-01 0.000000e+00 0.000000e+00
1
Step 452000
Ar -6.017512e-01 0.000000e+00 0.000000e+00
1
Step 453000
Ar -6.483780e-01 0.000000e+00 0.000000e+00
1
Step 454000
Ar -6.212674e-01 0.000000e+00 0.000000e+00
1
Step 455000
Ar -6.241298e-01 0.000000e+00 0.000000e+00
1
Step 456000
Ar -6.071253e-01 0.000000e+00 0.000000e+00
1
Step 457000
Ar -6.328099e-01 0.000000e+00 0.000000e+00
1
Step 458000
Ar -6.456888e-01 0.000000e+00 0.000000e+00
1
Step 459000
Ar -6.219553e-01 0.000000e+00 0.000000e+00
1
Step 460000
Ar -6.413537e-01 0.000000e+00 0.000000e+00
1
Step 461000
Ar -6.483768e-01 0.000000e+00 0.000000e+00
1
Step 462000
Ar -6.185072e-01 0.000000e+00 0.000000e+00
1
Step 463000
Ar -6.292681e-01 0.000000e+00 0.000000e+00
1
Step 464000
Ar -6.338133e-01 0.000000e+00 0.000000e+00
1
Step 465000
Ar -6.647698e-01 0.000000e+00 0.000000e+00
1
Step 466000
Ar -6.377631e-01 0.000000e+00 0.000000e+00
1
Step 467000
Ar -6.321225e-01 0.000000e+00 0.000000e+00
1
Step 468000
Ar -6.616857e-01 0.000000e+00 0.000000e+00
1
Step 469000
Ar -6.394183e-01 0.000000e+00 0.000000e+00
1
Step 470000
Ar -6.548326e-01 0.000000e+00 0.000000e+00
1
Step 471000
Ar -6.396895e-01 0.000000e+00 0.000000e+00
1
Step 472000
Ar -6.502632e-01 0.000000e+00 0.000000e+00
1
Step 473000
Ar -6.879361e-01 0.000000e+00 0.000000e+00
1
Step 474000
Ar -5.862754e-01 0.000000e+00 0.000000e+00
1
Step 475000
Ar -5.959283e-01 0.000000e+00 0.000000e+00
1
Step 476000
Ar -5.840166e-01 0.000000e+00 0.000000e+00
1
Step 477000
Ar -5.893279e-01 0.000000e+00 0.000000e+00
1
Step 478000
Ar -5.318566e-01 0.000000e+00 0.000000e+00
1
Step 479000
Ar -5.928625e-01 0.000000e+00 0.000000e+00
1
Step 480000
Ar -5.705804e-01 0.000000e+00 0.000000e+00
1
Step 481000
Ar -5.689589e-01 0.000000e+00 0.000000e+00
1
Step 482000
Ar -5.909498e-01 0.000000e+00 0.000000e+00
1
Step 483000
Ar -5.290691e-01 0.000000e+00 0.000000e+00
1
Step 484000
Ar -4.606155e-01 0.000000e+00 0.000000e+00
1
Step 485000
Ar 5.507519e-01 0.000000e+00 0.000000e+00
1
Step 486000
Ar 5.122006e-01 0.000000e+00 0.000000e+00
1
Step 487000
Ar 5.567140e-01 0.000000e+00 0.000000e+00
1
Step 488000
Ar 4.057116e-01 0.000000e+00 0.000000e+00
1
Step 489000
Ar 2.500494e-01 0.000000e+00 0.000000e+00
1
Step 490000
Ar 5.279151e-01 0.000000e+00 0.000000e+00
1
Step 491000
Ar 5.037313e-01 0.000000e+00 0.000000e+00
1
Step 492000
Ar 4.840091e-01 0.000000e+00 0.000000e+00
1
Step 493000
Ar 5.223684e-01 0.000000e+00 0.000000e+00
1
Step 494000
Ar 4.978439e-01 0.000000e+00 0.000000e+00
1
Step 495000
Ar 4.512714e-01 0.000000e+00 0.000000e+00
1
Step 496000
Ar 5.036348e-01 0.000000e+00 0.000000e+00
1
Step 497000
Ar 4.810710e-01 0.000000e+00 0.000000e+00
1
Step 498000
Ar 5.228375e-01 0.000000e+00 0.000000e+00
1
Step 499000
Ar 4.452593e-01 0.000000e+00 0.000000e+00
1
Step 500000
Ar 4.180695e-01 0.000000e+00 0.000000e+00
1
Step 501000
Ar 4.926637e-01 0.000000e+00 0.000000e+00
1
Step 502000
Ar 5.230386e-01 0.000000e+00 0.000000e+00
1
Step 503000
Ar 3.719994e-01 0.000000e+00 0.000000e+00
1
Step 504000
Ar 3.896652e-01 0.000000e+00 0.000000e+00
1
Step 505000
Ar 3.618519e-01 0.000000e+00 0.000000e+00
1
Step 506000
Ar 4.015033e-01 0.000000e+00 0.000000e+00
1
Step 507000
Ar 3.987387e-01 0.000000e+00 0.000000e+00
1
Step 508000
Ar 3.807887e-01 0.000000e+00 0.000000e+00
1
Step 509000
Ar 3.753642e-01 0.000000e+00 0.000000e+00
1
Step 510000
Ar 4.026510e-01 0.000000e+00 0.000000e+00
1
Step 511000
Ar 3.964683e-01 0.000000e+00 0.000000e+00
1
Step 512000
Ar 3.682045e-01 0.000000e+00 0.000000e+00
1
Step 513000
Ar 3.992880e-01 0.000000e+00 0.000000e+00
1
Step 514000
Ar 3.739066e-01 0.000000e+00 0.000000e+00
1
Step 515000
Ar 3.905415e-01 0.000000e+00 0.000000e+00
1
Step 516000
Ar 4.003909e-01 0.000000e+00 0.000000e+00
1
Step 517000
Ar 3.854653e-01 0.000000e+00 0.000000e+00
1
Step 518000
Ar 5.221354e-01 0.000000e+00 0.000000e+00
1
Step 519000
Ar 5.932578e-01 0.000000e+00 0.000000e+00
1
Step 520000
Ar 5.676321e-01 0.000000e+00 0.000000e+00
1
Step 521000
Ar 6.016479e-01 0.000000e+00 0.000000e+00
1
Step 522000
Ar 5.473461e-01 0.000000e+00 0.000000e+00
1
Step 523000
Ar 4.595336e-01 0.000000e+00 0.000000e+00
1
Step 524000
Ar 4.638749e-01 0.000000e+00 0.000000e+00
1
Step 525000
Ar 4.272805e-01 0.000000e+00 0.000000e+00
1
Step 526000
Ar 4.391082e-01 0.000000e+00 0.000000e+00
1
Step 527000
Ar 4.617398e-01 0.000000e+00 0.000000e+00
1
Step 528000
Ar 3.799232e-01 0.000000e+00 0.000000e+00
1
Step 529000
Ar 3.932282e-01 0.000000e+00 0.000000e+00
1
Step 530000
Ar 5.236440e-01 0.000000e+00 0.000000e+00
1
Step 531000
Ar 5.155829e-01 0.000000e+00 0.000000e+00
1
Step 532000
Ar 5.190344e-01 0.000000e+00 0.000000e+00
1
Step 533000
Ar 5.219263e-01 0.000000e+00 0.000000e+00
1
Step 534000
Ar 5.066411e-01 0.000000e+00 0.000000e+00
1
Step 535000
Ar 5.106771e-01 0.000000e+00 0.000000e+00
1
Step 536000
Ar 5.280135e-01 0.000000e+00 0.000000e+00
1
Step 537000
Ar 5.217059e-01 0.000000e+00 0.000000e+00
1
Step 538000
Ar 4.498565e-01 0.000000e+00 0.000000e+00
1
Step 539000
Ar 4.448530e-01 0.000000e+00 0.000000e+00
1
Step 540000
Ar 4.513041e-01 0.000000e+00 0.000000e+00
1
Step 541000
Ar 4.519926e-01 0.000000e+00 0.000000e+00
1
Step 542000
Ar 4.637962e-01 0.000000e+00 0.000000e+00
1
Step 543000
Ar 4.532218e-01 0.000000e+00 0.000000e+00
1
Step 544000
Ar 4.594905e-01 0.000000e+00 0.000000e+00
1
Step 545000
Ar 4.606898e-01 0.000000e+00 0.000000e+00
1
Step 546000
Ar 4.485337e-01 0.000000e+00 0.000000e+00
1
Step 547000
Ar 4.693923e-01 0.000000e+00 0.000000e+00
1
Step 548000
Ar 4.716110e-01 0.000000e+00 0.000000e+00
1
Step 549000
Ar 4.723686e-01 0.000000e+00 0.000000e+00
1
Step 550000
Ar 4.711597e-01 0.000000e+00 0.000000e+00
1
Step 551000
Ar 4.608435e-01 0.000000e+00 0.000000e+00
1
Step 552000
Ar 4.648845e-01 0.000000e+00 0.000000e+00
1
Step 553000
Ar 4.715222e-01 0.000000e+00 0.000000e+00
1
Step 554000
Ar 3.676796e-01 0.000000e+00 0.000000e+00
1
Step 555000
Ar 3.646389e-01 0.000000e+00 0.000000e+00
1
Step 556000
Ar 3.635789e-01 0.000000e+00 0.000000e+00
1
Step 557000
Ar 3.669795e-01 0.000000e+00 0.000000e+00
1
Step 558000
Ar 3.698717e-01 0.000000e+00 0.000000e+00
1
Step 559000
Ar 3.623674e-01 0.000000e+00 0.000000e+00
1
Step 560000
Ar 3.675714e-01 0.000000e+00 0.000000e+00
1
Step 561000
Ar 3.668144e-01 0.000000e+00 0.000000e+00
1
Step 562000
Ar 3.720688e-01 0.000000e+00 0.000000e+00
1
Step 563000
Ar 3.676185e-01 0.000000e+00 0.000000e+00
1
Step 564000
Ar 5.078829e-01 0.000000e+00 0.000000e+00
1
Step 565000
Ar 5.029737e-01 0.000000e+00 0.000000e+00
1
Step 566000
Ar 9.565069e-01 0.000000e+00 0.000000e+00
1
Step 567000
Ar 9.375560e-01 0.000000e+00 0.000000e+00
1
Step 568000
Ar 9.380465e-01 0.000000e+00 0.000000e+00
1
Step 569000
Ar 8.204510e-01 0.000000e+00 0.000000e+00
1
Step 570000
Ar 8.211739e-01 0.000000e+00 0.000000e+00
1
Step 571000
Ar 8.217357e-01 0.000000e+00 0.000000e+00
1
Step 572000
Ar 1.034839e+00 0.000000e+00 0.000000e+00
1
Step 573000
Ar 1.012606e+00 0.000000e+00 0.000000e+00
1
Step 574000
Ar 9.807427e-01 0.000000e+00 0.000000e+00
1
Step 575000
Ar 8.002677e-01 0.000000e+00 0.000000e+00
1
Step 576000
Ar 7.984891e-01 0.000000e+00 0.000000e+00
1
Step 577000
Ar 7.873754e-01 0.000000e+00 0.000000e+00
1
Step 578000
Ar 7.977194e-01 0.000000e+00 0.000000e+00
1
Step 579000
Ar 7.963189e-01 0.000000e+00 0.000000e+00
1
Step 580000
Ar 7.985810e-01 0.000000e+00 0.000000e+00
1
Step 581000
Ar 7.964794e-01 0.000000e+00 0.000000e+00
1
Step 582000
Ar 7.968929e-01 0.000000e+00 0.000000e+00
1
Step 583000
Ar 1.400928e+00 0.000000e+00 0.000000e+00
1
Step 584000
Ar 1.200363e+00 0.000000e+00 0.000000e+00
1
Step 585000
Ar 1.215361e+00 0.000000e+00 0.000000e+00
1
Step 586000
Ar 1.259827e+00 0.000000e+00 0.000000e+00
1
Step 587000
Ar 1.276448e+00 0.000000e+00 0.000000e+00
1
Step 588000
Ar 1.209442e+00 0.000000e+00 0.000000e+00
1
Step 589000
Ar 1.235956e+00 0.000000e+00 0.000000e+00
1
Step 590000
Ar 1.235394e+00 0.000000e+00 0.000000e+00
1
Step 591000
Ar 1.217391e+00 0.000000e+00 0.000000e+00
1
Step 592000
Ar 1.236023e+00 0.000000e+00 0.000000e+00
1
Step 593000
Ar 1.295538e+00 0.000000e+00 0.000000e+00
1
Step 594000
Ar 1.255906e+00 0.000000e+00 0.000000e+00
1
Step 595000
Ar 1.246907e+00 0.000000e+00 0.000000e+00
1
Step 596000
Ar 1.242319e+00 0.000000e+00 0.000000e+00
1
Step 597000
Ar 1.238184e+00 0.000000e+00 0.000000e+00
1
Step 598000
Ar 1.244786e+00 0.000000e+00 0.000000e+00
1
Step 599000
Ar 1.241721e+00 0.000000e+00 0.000000e+00
1
Step 600000
Ar 1.236540e+00 0.000000e+00 0.000000e+00
1
Step 601000
Ar 1.237321e+00 0.000000e+00 0.000000e+00
1
Step 602000
Ar 1.240376e+00 0.000000e+00 0.000000e+00
1
Step 603000
Ar 1.159746e+00 0.000000e+00 0.000000e+00
1
Step 604000
Ar 1.113272e+00 0.000000e+00 0.000000e+00
1
Step 605000
Ar 1.127493e+00 0.000000e+00 0.000000e+00
1
Step 606000
Ar 1.165732e+00 0.000000e+00 0.000000e+00
1
Step 607000
Ar 1.165139e+00 0.000000e+00 0.000000e+00
1
Step 608000
Ar 1.162023e+00 0.000000e+00 0.000000e+00
1
Step 609000
Ar 1.214446e+00 0.000000e+00 0.000000e+00
1
Step 610000
Ar 1.212867e+00 0.000000e+00 0.000000e+00
1
Step 611000
Ar 1.129764e+00 0.000000e+00 0.000000e+00
1
Step 612000
Ar 1.130023e+00 0.000000e+00 0.000000e+00
1
Step 613000
Ar 1.095122e+00 0.000000e+00 0.000000e+00
1
Step 614000
Ar 1.114598e+00 0.000000e+00 0.000000e+00
1
Step 615000
Ar 1.122207e+00 0.000000e+00 0.000000e+00
1
Step 616000
Ar 1.115181e+00 0.000000e+00 0.000000e+00
1
Step 617000
Ar 1.099933e+00 0.000000e+00 0.000000e+00
1
Step 618000
Ar 1.112591e+00 0.000000e+00 0.000000e+00
1
Step 619000
Ar 1.126266e+00 0.000000e+00 0.000000e+00
1
Step 620000
Ar 1.099892e+00 0.000000e+00 0.000000e+00
1
Step 621000
Ar 1.109959e+00 0.000000e+00 0.000000e+00
1
Step 622000
Ar 1.101356e+00 0.000000e+00 0.000000e+00
1
Step 623000
Ar 1.132372e+00 0.000000e+00 0.000000e+00
1
Step 624000
Ar 1.123076e+00 0.000000e+00 0.000000e+00
1
Step 625000
Ar 1.099335e+00 0.000000e+00 0.000000e+00
1
Step 626000
Ar 1.117392e+00 0.000000e+00 0.000000e+00
1
Step 627000
Ar 1.132748e+00 0.000000e+00 0.000000e+00
1
Step 628000
Ar 1.126309e+00 0.000000e+00 0.000000e+00
1
Step 629000
Ar 1.130508e+00 0.000000e+00 0.000000e+00
1
Step 630000
Ar 1.122358e+00 0.000000e+00 0.000000e+00
1
Step 631000
Ar 1.120030e+00 0.000000e+00 0.000000e+00
1
Step 632000
Ar 7.013263e-01 0.000000e+00 0.000000e+00
1
Step 633000
Ar 7.548302e-01 0.000000e+00 0.000000e+00
1
Step 634000
Ar 7.635038e-01 0.000000e+00 0.000000e+00
1
Step 635000
Ar 4.408480e-01 0.000000e+00 0.000000e+00
1
Step 636000
Ar 4.390719e-01 0.000000e+00 0.000000e+00
1
Step 637000
Ar 4.399469e-01 0.000000e+00 0.000000e+00
1
Step 638000
Ar 4.413142e-01 0.000000e+00 0.000000e+00
1
Step 639000
Ar 4.420496e-01 0.000000e+00 0.000000e+00
1
Step 640000
Ar 4.386891e-01 0.000000e+00 0.000000e+00
1
Step 641000
Ar 4.336860e-01 0.000000e+00 0.000000e+00
1
Step 642000
Ar 4.397111e-01 0.000000e+00 0.000000e+00
1
Step 643000
Ar 4.424072e-01 0.000000e+00 0.000000e+00
1
Step 644000
Ar 4.408815e-01 0.000000e+00 0.000000e+00
1
Step 645000
Ar 4.392656e-01 0.000000e+00 0.000000e+00
1
Step 646000
Ar 4.391047e-01 0.000000e+00 0.000000e+00
1
Step 647000
Ar 4.361634e-01 0.000000e+00 0.000000e+00
1
Step 648000
Ar 4.439052e-01 0.000000e+00 0.000000e+00
1
Step 649000
Ar 4.393896e-01 0.000000e+00 0.000000e+00
1
Step 650000
Ar 4.380983e-01 0.000000e+00 0.000000e+00
1
Step 651000
Ar 4.410120e-01 0.000000e+00 0.000000e+00
1
Step 652000