1
Step 120000
Ar 1.003649e+00 0.000000e+00 0.000000e+00
1
Step 121000
Ar 1.002622e+00 0.000000e+00 0.000000e+00
1
Step 122000
Ar 9.956491e-01 0.000000e+00 0.000000e+00
1
Step 123000
Ar 1.005695e+00 0.000000e+00 0.000000e+00
1
Step 124000
Ar 1.011379e+00 0.000000e+00 0.000000e+00
1
Step 125000
Ar 9.810981e-01 0.000000e+00 0.000000e+00
1
Step 126000
Ar 9.669821e-01 0.000000e+00 0.000000e+00
1
Step 127000
Ar 9.696828e-01 0.000000e+00 0.000000e+00
1
Step 128000
Ar 9.688303e-01 0.000000e+00 0.000000e+00
1
Step 129000
Ar 9.640137e-01 0.000000e+00 0.000000e+00
1
Step 130000
Ar 9.587395e-01 0.000000e+00 0.000000e+00
1
Step 131000
Ar 9.487002e-01 0.000000e+00 0.000000e+00
1
Step 132000
Ar 9.446400e-01 0.000000e+00 0.000000e+00
1
Step 133000
Ar 9.491391e-01 0.000000e+00 0.000000e+00
1
Step 134000
Ar 9.464518e-01 0.000000e+00 0.000000e+00
1
Step 135000
Ar 9.484875e-01 0.000000e+00 0.000000e+00
1
Step 136000
Ar 9.359105e-01 0.000000e+00 0.000000e+00
1
Step 137000
Ar 9.367675e-01 0.000000e+00 0.000000e+00
1
Step 138000
Ar 9.373590e-01 0.000000e+00 0.000000e+00
1
Step 139000
Ar 9.275430e-01 0.000000e+00 0.000000e+00
1
Step 140000
Ar 9.366611e-01 0.000000e+00 0.000000e+00
1
Step 141000
Ar 1.008635e+00 0.000000e+00 0.000000e+00
1
Step 142000
Ar 1.000792e+00 0.000000e+00 0.000000e+00
1
Step 143000
Ar 1.000054e+00 0.000000e+00 0.000000e+00
1
Step 144000
Ar 9.926576e-01 0.000000e+00 0.000000e+00
1
Step 145000
Ar 9.981651e-01 0.000000e+00 0.000000e+00
1
Step 146000
Ar 1.017890e+00 0.000000e+00 0.000000e+00
1
Step 147000
Ar 1.014094e+00 0.000000e+00 0.000000e+00
1
Step 148000
Ar 1.033886e+00 0.000000e+00 0.000000e+00
1
Step 149000
Ar 1.024174e+00 0.000000e+00 0.000000e+00
1
Step 150000
Ar 1.008915e+00 0.000000e+00 0.000000e+00
1
Step 151000
Ar 1.025737e+00 0.000000e+00 0.000000e+00
1
Step 152000
Ar 1.020642e+00 0.000000e+00 0.000000e+00
1
Step 153000
Ar 1.021144e+00 0.000000e+00 0.000000e+00
1
Step 154000
Ar 1.024924e+00 0.000000e+00 0.000000e+00
1
Step 155000
Ar 1.027043e+00 0.000000e+00 0.000000e+00
1
Step 156000
Ar 9.633136e-01 0.000000e+00 0.000000e+00
1
Step 157000
Ar 9.725839e-01 0.000000e+00 0.000000e+00
1
Step 158000
Ar 9.730668e-01 0.000000e+00 0.000000e+00
1
Step 159000
Ar 9.691948e-01 0.000000e+00 0.000000e+00
1
Step 160000
Ar 9.716952e-01 0.000000e+00 0.000000e+00
1
Step 161000
Ar 1.040236e+00 0.000000e+00 0.000000e+00
1
Step 162000
Ar 1.037933e+00 0.000000e+00 0.000000e+00
1
Step 163000
Ar 1.042617e+00 0.000000e+00 0.000000e+00
1
Step 164000
Ar 1.039428e+00 0.000000e+00 0.000000e+00
1
Step 165000
Ar 1.041953e+00 0.000000e+00 0.000000e+00
1
Step 166000
Ar 9.408720e-01 0.000000e+00 0.000000e+00
1
Step 167000
Ar 1.005513e+00 0.000000e+00 0.000000e+00
1
Step 168000
Ar 1.048214e+00 0.000000e+00 0.000000e+00
1
Step 169000
Ar 1.048917e+00 0.000000e+00 0.000000e+00
1
Step 170000
Ar 1.055900e+00 0.000000e+00 0.000000e+00
1
Step 171000
Ar 1.068413e+00 0.000000e+00 0.000000e+00
1
Step 172000
Ar 1.065449e+00 0.000000e+00 0.000000e+00
1
Step 173000
Ar 1.067247e+00 0.000000e+00 0.000000e+00
1
Step 174000
Ar 1.068693e+00 0.000000e+00 0.000000e+00
1
Step 175000
Ar 1.056947e+00 0.000000e+00 0.000000e+00
1
Step 176000
Ar 9.304628e-01 0.000000e+00 0.000000e+00
1
Step 177000
Ar 9.285535e-01 0.000000e+00 0.000000e+00
1
Step 178000
Ar 9.288997e-01 0.000000e+00 0.000000e+00
1
Step 179000
Ar 9.195978e-01 0.000000e+00 0.000000e+00
1
Step 180000
Ar 9.250753e-01 0.000000e+00 0.000000e+00
1
Step 181000
Ar 9.118653e-01 0.000000e+00 0.000000e+00
1
Step 182000
Ar 8.988884e-01 0.000000e+00 0.000000e+00
1
Step 183000
Ar 9.126258e-01 0.000000e+00 0.000000e+00
1
Step 184000
Ar 9.117502e-01 0.000000e+00 0.000000e+00
1
Step 185000
Ar 9.089895e-01 0.000000e+00 0.000000e+00
1
Step 186000
Ar 1.071640e+00 0.000000e+00 0.000000e+00
1
Step 187000
Ar 1.074325e+00 0.000000e+00 0.000000e+00
1
Step 188000
Ar 1.072692e+00 0.000000e+00 0.000000e+00
1
Step 189000
Ar 1.069905e+00 0.000000e+00 0.000000e+00
1
Step 190000
Ar 1.074983e+00 0.000000e+00 0.000000e+00
1
Step 191000
Ar 1.064450e+00 0.000000e+00 0.000000e+00
1
Step 192000
Ar 1.018088e+00 0.000000e+00 0.000000e+00
1
Step 193000
Ar 9.947646e-01 0.000000e+00 0.000000e+00
1
Step 194000
Ar 9.634813e-01 0.000000e+00 0.000000e+00
1
Step 195000
Ar 1.076734e+00 0.000000e+00 0.000000e+00
1
Step 196000
Ar 1.069722e+00 0.000000e+00 0.000000e+00
1
Step 197000
Ar 1.086273e+00 0.000000e+00 0.000000e+00
1
Step 198000
Ar 1.084993e+00 0.000000e+00 0.000000e+00
1
Step 199000
Ar 1.088634e+00 0.000000e+00 0.000000e+00
1
Step 200000
Ar 1.088138e+00 0.000000e+00 0.000000e+00
1
Step 201000
Ar 1.097877e+00 0.000000e+00 0.000000e+00
1
Step 202000
Ar 1.096805e+00 0.000000e+00 0.000000e+00
1
Step 203000
Ar 1.098015e+00 0.000000e+00 0.000000e+00
1
Step 204000
Ar 1.100191e+00 0.000000e+00 0.000000e+00
1
Step 205000
Ar 1.098180e+00 0.000000e+00 0.000000e+00
1
Step 206000
Ar 9.783762e-01 0.000000e+00 0.000000e+00
1
Step 207000
Ar 9.894814e-01 0.000000e+00 0.000000e+00
1
Step 208000
Ar 9.001691e-01 0.000000e+00 0.000000e+00
1
Step 209000
Ar 8.999208e-01 0.000000e+00 0.000000e+00
1
Step 210000
Ar 8.998270e-01 0.000000e+00 0.000000e+00
1
Step 211000
Ar 8.900659e-01 0.000000e+00 0.000000e+00
1
Step 212000
Ar 8.879553e-01 0.000000e+00 0.000000e+00
1
Step 213000
Ar 8.919743e-01 0.000000e+00 0.000000e+00
1
Step 214000
Ar 8.911585e-01 0.000000e+00 0.000000e+00
1
Step 215000
Ar 8.916110e-01 0.000000e+00 0.000000e+00
1
Step 216000
Ar 1.097424e+00 0.000000e+00 0.000000e+00
1
Step 217000
Ar 9.968252e-01 0.000000e+00 0.000000e+00
1
Step 218000
Ar 9.042885e-01 0.000000e+00 0.000000e+00
1
Step 219000
Ar 9.751408e-01 0.000000e+00 0.000000e+00
1
Step 220000
Ar 1.102417e+00 0.000000e+00 0.000000e+00
1
Step 221000
Ar 9.670526e-01 0.000000e+00 0.000000e+00
1
Step 222000
Ar 9.710251e-01 0.000000e+00 0.000000e+00
1
Step 223000
Ar 1.067221e+00 0.000000e+00 0.000000e+00
1
Step 224000
Ar 1.030547e+00 0.000000e+00 0.000000e+00
1
Step 225000
Ar 1.107182e+00 0.000000e+00 0.000000e+00
1
Step 226000
Ar 9.242030e-01 0.000000e+00 0.000000e+00
1
Step 227000
Ar 9.927068e-01 0.000000e+00 0.000000e+00
1
Step 228000
Ar 1.008785e+00 0.000000e+00 0.000000e+00
1
Step 229000
Ar 1.015164e+00 0.000000e+00 0.000000e+00
1
Step 230000
Ar 1.068105e+00 0.000000e+00 0.000000e+00
1
Step 231000
Ar 9.243535e-01 0.000000e+00 0.000000e+00
1
Step 232000
Ar 1.002291e+00 0.000000e+00 0.000000e+00
1
Step 233000
Ar 8.786609e-01 0.000000e+00 0.000000e+00
1
Step 234000
Ar 8.857869e-01 0.000000e+00 0.000000e+00
1
Step 235000
Ar 8.814677e-01 0.000000e+00 0.000000e+00
1
Step 236000
Ar 1.084283e+00 0.000000e+00 0.000000e+00
1
Step 237000
Ar 1.021767e+00 0.000000e+00 0.000000e+00
1
Step 238000
Ar 1.085875e+00 0.000000e+00 0.000000e+00
1
Step 239000
Ar 9.870183e-01 0.000000e+00 0.000000e+00
1
Step 240000
Ar 1.119675e+00 0.000000e+00 0.000000e+00
1
Step 241000
Ar 1.027971e+00 0.000000e+00 0.000000e+00
1
Step 242000
Ar 8.659291e-01 0.000000e+00 0.000000e+00
1
Step 243000
Ar 9.503908e-01 0.000000e+00 0.000000e+00
1
Step 244000
Ar 6.881864e-01 0.000000e+00 0.000000e+00
1
Step 245000
Ar 1.091045e+00 0.000000e+00 0.000000e+00
1
Step 246000
Ar 9.668788e-01 0.000000e+00 0.000000e+00
1
Step 247000
Ar 1.004889e+00 0.000000e+00 0.000000e+00
1
Step 248000
Ar 1.018887e+00 0.000000e+00 0.000000e+00
1
Step 249000
Ar 7.769965e-01 0.000000e+00 0.000000e+00
1
Step 250000
Ar 9.509971e-01 0.000000e+00 0.000000e+00
1
Step 251000
Ar 1.019246e+00 0.000000e+00 0.000000e+00
1
Step 252000
Ar 1.156334e+00 0.000000e+00 0.000000e+00
1
Step 253000
Ar 9.431926e-01 0.000000e+00 0.000000e+00
1
Step 254000
Ar 1.019710e+00 0.000000e+00 0.000000e+00
1
Step 255000
Ar 9.386922e-01 0.000000e+00 0.000000e+00
1
Step 256000
Ar 1.023528e+00 0.000000e+00 0.000000e+00
1
Step 257000
Ar 9.435468e-01 0.000000e+00 0.000000e+00
1
Step 258000
Ar 8.491516e-01 0.000000e+00 0.000000e+00
1
Step 259000
Ar 1.014643e+00 0.000000e+00 0.000000e+00
1
Step 260000
Ar 1.105229e+00 0.000000e+00 0.000000e+00
1
Step 261000
Ar 1.127540e+00 0.000000e+00 0.000000e+00
1
Step 262000
Ar 1.118956e+00 0.000000e+00 0.000000e+00
1
Step 263000
Ar 9.964869e-01 0.000000e+00 0.000000e+00
1
Step 264000
Ar 1.152698e+00 0.000000e+00 0.000000e+00
1
Step 265000
Ar 8.183260e-01 0.000000e+00 0.000000e+00
1
Step 266000
Ar 8.992938e-01 0.000000e+00 0.000000e+00
1
Step 267000
Ar 8.230830e-01 0.000000e+00 0.000000e+00
1
Step 268000
Ar 1.030493e+00 0.000000e+00 0.000000e+00
1
Step 269000
Ar 1.015640e+00 0.000000e+00 0.000000e+00
1
Step 270000
Ar 8.735722e-01 0.000000e+00 0.000000e+00
1
Step 271000
Ar 8.673926e-01 0.000000e+00 0.000000e+00
1
Step 272000
Ar 8.690030e-01 0.000000e+00 0.000000e+00
1
Step 273000
Ar 1.114088e+00 0.000000e+00 0.000000e+00
1
Step 274000
Ar 9.889213e-01 0.000000e+00 0.000000e+00
1
Step 275000
Ar 8.800235e-01 0.000000e+00 0.000000e+00
1
Step 276000
Ar 9.521255e-01 0.000000e+00 0.000000e+00
1
Step 277000
Ar 9.654890e-01 0.000000e+00 0.000000e+00
1
Step 278000
Ar 9.907448e-01 0.000000e+00 0.000000e+00
1
Step 279000
Ar 7.845537e-01 0.000000e+00 0.000000e+00
1
Step 280000
Ar 8.645579e-01 0.000000e+00 0.000000e+00
1
Step 281000
Ar 8.570722e-01 0.000000e+00 0.000000e+00
1
Step 282000
Ar 8.578244e-01 0.000000e+00 0.000000e+00
1
Step 283000
Ar 8.529405e-01 0.000000e+00 0.000000e+00
1
Step 284000
Ar 8.555603e-01 0.000000e+00 0.000000e+00
1
Step 285000
Ar 8.591678e-01 0.000000e+00 0.000000e+00
1
Step 286000
Ar 8.982524e-01 0.000000e+00 0.000000e+00
1
Step 287000
Ar 8.478426e-01 0.000000e+00 0.000000e+00
1
Step 288000
Ar 8.498455e-01 0.000000e+00 0.000000e+00
1
Step 289000
Ar 7.059307e-01 0.000000e+00 0.000000e+00
1
Step 290000
Ar 9.381555e-01 0.000000e+00 0.000000e+00
1
Step 291000
Ar 1.071858e+00 0.000000e+00 0.000000e+00
1
Step 292000
Ar 1.032260e+00 0.000000e+00 0.000000e+00
1
Step 293000
Ar 1.072766e+00 0.000000e+00 0.000000e+00
1
Step 294000
Ar 5.957639e-01 0.000000e+00 0.000000e+00
1
Step 295000
Ar 8.562426e-01 0.000000e+00 0.000000e+00
1
Step 296000
Ar 1.021741e+00 0.000000e+00 0.000000e+00
1
Step 297000
Ar 8.731280e-01 0.000000e+00 0.000000e+00
1
Step 298000
Ar 7.254755e-01 0.000000e+00 0.000000e+00
1
Step 299000
Ar 1.164718e+00 0.000000e+00 0.000000e+00
1
Step 300000
Ar 8.459352e-01 0.000000e+00 0.000000e+00
1
Step 301000
Ar 8.368432e-01 0.000000e+00 0.000000e+00
1
Step 302000
Ar 8.409815e-01 0.000000e+00 0.000000e+00
1
Step 303000
Ar 8.343617e-01 0.000000e+00 0.000000e+00
1
Step 304000
Ar 8.369670e-01 0.000000e+00 0.000000e+00
1
Step 305000
Ar 8.350132e-01 0.000000e+00 0.000000e+00
1
Step 306000
Ar 9.747223e-01 0.000000e+00 0.000000e+00
1
Step 307000
Ar 1.088944e+00 0.000000e+00 0.000000e+00
1
Step 308000
Ar 1.115923e+00 0.000000e+00 0.000000e+00
1
Step 309000
Ar 9.834798e-01 0.000000e+00 0.000000e+00
1
Step 310000
Ar 9.822251e-01 0.000000e+00 0.000000e+00
1
Step 311000
Ar 1.007425e+00 0.000000e+00 0.000000e+00
1
Step 312000
Ar 8.692705e-01 0.000000e+00 0.000000e+00
1
Step 313000
Ar 8.707476e-01 0.000000e+00 0.000000e+00
1
Step 314000
Ar 1.125491e+00 0.000000e+00 0.000000e+00
1
Step 315000
Ar 9.202872e-01 0.000000e+00 0.000000e+00
1
Step 316000
Ar 1.192058e+00 0.000000e+00 0.000000e+00
1
Step 317000
Ar 9.809406e-01 0.000000e+00 0.000000e+00
1
Step 318000
Ar 1.017372e+00 0.000000e+00 0.000000e+00
1
Step 319000
Ar 1.018002e+00 0.000000e+00 0.000000e+00
1
Step 320000
Ar 1.018416e+00 0.000000e+00 0.000000e+00
1
Step 321000
Ar 9.527389e-01 0.000000e+00 0.000000e+00
1
Step 322000
Ar 7.664192e-01 0.000000e+00 0.000000e+00
1
Step 323000
Ar 8.233656e-01 0.000000e+00 0.000000e+00
1
Step 324000
Ar 1.031537e+00 0.000000e+00 0.000000e+00
1
Step 325000
Ar 1.011527e+00 0.000000e+00 0.000000e+00
1
Step 326000
Ar 9.627348e-01 0.000000e+00 0.000000e+00
1
Step 327000
Ar 1.033243e+00 0.000000e+00 0.000000e+00
1
Step 328000
Ar 9.634839e-01 0.000000e+00 0.000000e+00
1
Step 329000
Ar 1.200225e+00 0.000000e+00 0.000000e+00
1
Step 330000
Ar 7.165781e-01 0.000000e+00 0.000000e+00
1
Step 331000
Ar 1.273026e+00 0.000000e+00 0.000000e+00
1
Step 332000
Ar 7.884541e-01 0.000000e+00 0.000000e+00
1
Step 333000
Ar 1.141609e+00 0.000000e+00 0.000000e+00
1
Step 334000
Ar 1.107358e+00 0.000000e+00 0.000000e+00
1
Step 335000
Ar 9.662471e-01 0.000000e+00 0.000000e+00
1
Step 336000
Ar 1.034989e+00 0.000000e+00 0.000000e+00
1
Step 337000
Ar 1.195449e+00 0.000000e+00 0.000000e+00
1
Step 338000
Ar 1.073565e+00 0.000000e+00 0.000000e+00
1
Step 339000
Ar 1.025263e+00 0.000000e+00 0.000000e+00
1
Step 340000
Ar 1.215658e+00 0.000000e+00 0.000000e+00
1
Step 341000
Ar 8.468826e-01 0.000000e+00 0.000000e+00
1
Step 342000
Ar 1.024217e+00 0.000000e+00 0.000000e+00
1
Step 343000
Ar 1.003265e+00 0.000000e+00 0.000000e+00
1
Step 344000
Ar 1.044053e+00 0.000000e+00 0.000000e+00
1
Step 345000
Ar 9.119192e-01 0.000000e+00 0.000000e+00
1
Step 346000
Ar 1.034572e+00 0.000000e+00 0.000000e+00
1
Step 347000
Ar 6.850305e-01 0.000000e+00 0.000000e+00
1
Step 348000
Ar 1.037720e+00 0.000000e+00 0.000000e+00
1
Step 349000
Ar 9.637359e-01 0.000000e+00 0.000000e+00
1
Step 350000
Ar 1.015978e+00 0.000000e+00 0.000000e+00
1
Step 351000
Ar 8.450512e-01 0.000000e+00 0.000000e+00
1
Step 352000
Ar 8.430846e-01 0.000000e+00 0.000000e+00
1
Step 353000
Ar 1.055356e+00 0.000000e+00 0.000000e+00
1
Step 354000
Ar 1.225112e+00 0.000000e+00 0.000000e+00
1
Step 355000
Ar 8.474072e-01 0.000000e+00 0.000000e+00
1
Step 356000
Ar 1.123161e+00 0.000000e+00 0.000000e+00
1
Step 357000
Ar 1.033845e+00 0.000000e+00 0.000000e+00
1
Step 358000
Ar 9.126841e-01 0.000000e+00 0.000000e+00
1
Step 359000
Ar 1.184299e+00 0.000000e+00 0.000000e+00
1
Step 360000
Ar 8.370027e-01 0.000000e+00 0.000000e+00
1
Step 361000
Ar 1.060871e+00 0.000000e+00 0.000000e+00
1
Step 362000
Ar 1.126720e+00 0.000000e+00 0.000000e+00
1
Step 363000
Ar 1.041137e+00 0.000000e+00 0.000000e+00
1
Step 364000
Ar 1.050336e+00 0.000000e+00 0.000000e+00
1
Step 365000
Ar 1.032862e+00 0.000000e+00 0.000000e+00
1
Step 366000
Ar 1.045538e+00 0.000000e+00 0.000000e+00
1
Step 367000
Ar 9.919750e-01 0.000000e+00 0.000000e+00
1
Step 368000
Ar 9.712203e-01 0.000000e+00 0.000000e+00
1
Step 369000
Ar 1.197161e+00 0.000000e+00 0.000000e+00
1
Step 370000
Ar 7.843091e-01 0.000000e+00 0.000000e+00
1
Step 371000
Ar 8.316495e-01 0.000000e+00 0.000000e+00
1
Step 372000
Ar 8.500804e-01 0.000000e+00 0.000000e+00
1
Step 373000
Ar 8.462140e-01 0.000000e+00 0.000000e+00
1
Step 374000
Ar 8.380102e-01 0.000000e+00 0.000000e+00
1
Step 375000
Ar 8.752668e-01 0.000000e+00 0.000000e+00
1
Step 376000
Ar 1.137609e+00 0.000000e+00 0.000000e+00
1
Step 377000
Ar 1.033025e+00 0.000000e+00 0.000000e+00
1
Step 378000
Ar 1.212224e+00 0.000000e+00 0.000000e+00
1
Step 379000
Ar 1.049625e+00 0.000000e+00 0.000000e+00
1
Step 380000
Ar 9.168361e-01 0.000000e+00 0.000000e+00
1
Step 381000
Ar 8.385630e-01 0.000000e+00 0.000000e+00
1
Step 382000
Ar 8.422685e-01 0.000000e+00 0.000000e+00
1
Step 383000
Ar 1.008190e+00 0.000000e+00 0.000000e+00
1
Step 384000
Ar 9.462573e-01 0.000000e+00 0.000000e+00
1
Step 385000
Ar 5.936949e-01 0.000000e+00 0.000000e+00
1
Step 386000
Ar 1.243953e+00 0.000000e+00 0.000000e+00
1
Step 387000
Ar 1.061880e+00 0.000000e+00 0.000000e+00
1
Step 388000
Ar 8.923642e-01 0.000000e+00 0.000000e+00
1
Step 389000
Ar 8.957459e-01 0.000000e+00 0.000000e+00
1
Step 390000
Ar 9.024114e-01 0.000000e+00 0.000000e+00
1
Step 391000
Ar 8.101482e-01 0.000000e+00 0.000000e+00
1
Step 392000
Ar 1.134436e+00 0.000000e+00 0.000000e+00
1
Step 393000
Ar 6.782051e-01 0.000000e+00 0.000000e+00
1
Step 394000
Ar 9.959952e-01 0.000000e+00 0.000000e+00
1
Step 395000
Ar 1.242596e+00 0.000000e+00 0.000000e+00
1
Step 396000
Ar 9.219336e-01 0.000000e+00 0.000000e+00
1
Step 397000
Ar 1.001188e+00 0.000000e+00 0.000000e+00
1
Step 398000
Ar 9.416632e-01 0.000000e+00 0.000000e+00
1
Step 399000
Ar 9.198443e-01 0.000000e+00 0.000000e+00
1
Step 400000
Ar 8.919725e-01 0.000000e+00 0.000000e+00
1
Step 401000
Ar 1.038957e+00 0.000000e+00 0.000000e+00
1
Step 402000
Ar 7.644187e-01 0.000000e+00 0.000000e+00
1
Step 403000
Ar 1.040909e+00 0.000000e+00 0.000000e+00
1
Step 404000
Ar 1.103045e+00 0.000000e+00 0.000000e+00
1
Step 405000
Ar 9.627555e-01 0.000000e+00 0.000000e+00
1
Step 406000
Ar 1.031535e+00 0.000000e+00 0.000000e+00
1
Step 407000
Ar 7.444231e-01 0.000000e+00 0.000000e+00
1
Step 408000
Ar 1.056799e+00 0.000000e+00 0.000000e+00
1
Step 409000
Ar 9.551258e-01 0.000000e+00 0.000000e+00
1
Step 410000
Ar 1.148901e+00 0.000000e+00 0.000000e+00
1
Step 411000
Ar 1.296699e+00 0.000000e+00 0.000000e+00
1
Step 412000
Ar 8.021727e-01 0.000000e+00 0.000000e+00
1
Step 413000
Ar 8.470159e-01 0.000000e+00 0.000000e+00
1
Step 414000
Ar 1.193483e+00 0.000000e+00 0.000000e+00
1
Step 415000
Ar 1.061248e+00 0.000000e+00 0.000000e+00
1
Step 416000
Ar 6.967733e-01 0.000000e+00 0.000000e+00
1
Step 417000
Ar 1.048196e+00 0.000000e+00 0.000000e+00
1
Step 418000
Ar 1.323707e+00 0.000000e+00 0.000000e+00
1
Step 419000
Ar 1.066630e+00 0.000000e+00 0.000000e+00
1
Step 420000
Ar 8.780309e-01 0.000000e+00 0.000000e+00
1
Step 421000
Ar 1.100811e+00 0.000000e+00 0.000000e+00
1
Step 422000
Ar 6.467609e-01 0.000000e+00 0.000000e+00
1
Step 423000
Ar 1.112055e+00 0.000000e+00 0.000000e+00
1
Step 424000
Ar 1.242015e+00 0.000000e+00 0.000000e+00
1
Step 425000
Ar 8.077390e-01 0.000000e+00 0.000000e+00
1
Step 426000
Ar 9.623524e-01 0.000000e+00 0.000000e+00
1
Step 427000
Ar 1.264105e+00 0.000000e+00 0.000000e+00
1
Step 428000
Ar 5.963886e-01 0.000000e+00 0.000000e+00
1
Step 429000
Ar 7.388793e-01 0.000000e+00 0.000000e+00
1
Step 430000
Ar 8.519407e-01 0.000000e+00 0.000000e+00
1
Step 431000
Ar 1.199195e+00 0.000000e+00 0.000000e+00
1
Step 432000
Ar 8.680251e-01 0.000000e+00 0.000000e+00
1
Step 433000
Ar 8.662215e-01 0.000000e+00 0.000000e+00
1
Step 434000
Ar 8.331478e-01 0.000000e+00 0.000000e+00
1
Step 435000
Ar 1.082327e+00 0.000000e+00 0.000000e+00
1
Step 436000
Ar 1.092094e+00 0.000000e+00 0.000000e+00
1
Step 437000
Ar 9.491689e-01 0.000000e+00 0.000000e+00
1
Step 438000
Ar 8.088793e-01 0.000000e+00 0.000000e+00
1
Step 439000
Ar 1.093317e+00 0.000000e+00 0.000000e+00
1
Step 440000
Ar 1.220258e+00 0.000000e+00 0.000000e+00
1
Step 441000
Ar 9.336431e-01 0.000000e+00 0.000000e+00
1
Step 442000
Ar 1.243137e+00 0.000000e+00 0.000000e+00
1
Step 443000
Ar 1.117552e+00 0.000000e+00 0.000000e+00
1
Step 444000
Ar 1.120920e+00 0.000000e+00 0.000000e+00
1
Step 445000
Ar 5.539985e-01 0.000000e+00 0.000000e+00
1
Step 446000
Ar 9.927989e-01 0.000000e+00 0.000000e+00
1
Step 447000
Ar 7.527831e-01 0.000000e+00 0.000000e+00
1
Step 448000
Ar 1.181928e+00 0.000000e+00 0.000000e+00
1
Step 449000
Ar 1.293116e+00 0.000000e+00 0.000000e+00
1
Step 450000
Ar 8.494114e-01 0.000000e+00 0.000000e+00
1
Step 451000
Ar 1.099097e+00 0.000000e+00 0.000000e+00
1
Step 452000
Ar 9.921730e-01 0.000000e+00 0.000000e+00
1
Step 453000
Ar 9.081953e-01 0.000000e+00 0.000000e+00
1
Step 454000
Ar 7.351496e-01 0.000000e+00 0.000000e+00
1
Step 455000
Ar 9.784290e-01 0.000000e+00 0.000000e+00
1
Step 456000
Ar 4.982709e-01 0.000000e+00 0.000000e+00
1
Step 457000
Ar 1.063752e+00 0.000000e+00 0.000000e+00
1
Step 458000
Ar 1.026883e+00 0.000000e+00 0.000000e+00
1
Step 459000
Ar 1.090201e+00 0.000000e+00 0.000000e+00
1
Step 460000
Ar 9.511419e-01 0.000000e+00 0.000000e+00
1
Step 461000
Ar 1.037993e+00 0.000000e+00 0.000000e+00
1
Step 462000
Ar 9.544085e-01 0.000000e+00 0.000000e+00
1
Step 463000
Ar -1.060998e+00 0.000000e+00 0.000000e+00
1
Step 464000
Ar -1.001160e+00 0.000000e+00 0.000000e+00
1
Step 465000
Ar -1.017273e+00 0.000000e+00 0.000000e+00
1
Step 466000
Ar -9.948948e-01 0.000000e+00 0.000000e+00
1
Step 467000
Ar -1.000769e+00 0.000000e+00 0.000000e+00
1
Step 468000
Ar -9.873860e-01 0.000000e+00 0.000000e+00
1
Step 469000
Ar -9.970760e-01 0.000000e+00 0.000000e+00
1
Step 470000
Ar -9.762645e-01 0.000000e+00 0.000000e+00
1
Step 471000
Ar -1.003619e+00 0.000000e+00 0.000000e+00
1
Step 472000
Ar -9.912630e-01 0.000000e+00 0.000000e+00
1
Step 473000
Ar -9.994612e-01 0.000000e+00 0.000000e+00
1
Step 474000
Ar -9.907758e-01 0.000000e+00 0.000000e+00
1
Step 475000
Ar -9.919098e-01 0.000000e+00 0.000000e+00
1
Step 476000
Ar -1.032853e+00 0.000000e+00 0.000000e+00
1
Step 477000
Ar -1.033229e+00 0.000000e+00 0.000000e+00
1
Step 478000
Ar -1.033714e+00 0.000000e+00 0.000000e+00
1
Step 479000
Ar -1.028507e+00 0.000000e+00 0.000000e+00
1
Step 480000
Ar -1.032985e+00 0.000000e+00 0.000000e+00
1
Step 481000
Ar -1.052860e+00 0.000000e+00 0.000000e+00
1
Step 482000
Ar -1.044155e+00 0.000000e+00 0.000000e+00
1
Step 483000
Ar -1.042371e+00 0.000000e+00 0.000000e+00
1
Step 484000
Ar -1.045724e+00 0.000000e+00 0.000000e+00
1
Step 485000
Ar -1.043930e+00 0.000000e+00 0.000000e+00
1
Step 486000
Ar -1.054006e+00 0.000000e+00 0.000000e+00
1
Step 487000
Ar -1.057547e+00 0.000000e+00 0.000000e+00
1
Step 488000
Ar -1.053930e+00 0.000000e+00 0.000000e+00
1
Step 489000
Ar -1.061211e+00 0.000000e+00 0.000000e+00
1
Step 490000
Ar -1.060015e+00 0.000000e+00 0.000000e+00
1
Step 491000
Ar -1.022775e+00 0.000000e+00 0.000000e+00
1
Step 492000
Ar -1.007607e+00 0.000000e+00 0.000000e+00
1
Step 493000
Ar -1.007834e+00 0.000000e+00 0.000000e+00
1
Step 494000
Ar -1.004088e+00 0.000000e+00 0.000000e+00
1
Step 495000
Ar -1.002189e+00 0.000000e+00 0.000000e+00
1
Step 496000
Ar -9.616821e-01 0.000000e+00 0.000000e+00
1
Step 497000
Ar -9.581133e-01 0.000000e+00 0.000000e+00
1
Step 498000
Ar -9.623201e-01 0.000000e+00 0.000000e+00
1
Step 499000
Ar -9.647692e-01 0.000000e+00 0.000000e+00
1
Step 500000
Ar -9.629450e-01 0.000000e+00 0.000000e+00
1
Step 501000
Ar -9.469002e-01 0.000000e+00 0.000000e+00
1
Step 502000
Ar -9.486119e-01 0.000000e+00 0.000000e+00
1
Step 503000
Ar -9.556595e-01 0.000000e+00 0.000000e+00
1
Step 504000
Ar -9.400718e-01 0.000000e+00 0.000000e+00
1
Step 505000
Ar -9.545837e-01 0.000000e+00 0.000000e+00
1
Step 506000
Ar -9.410097e-01 0.000000e+00 0.000000e+00
1
Step 507000
Ar -9.420949e-01 0.000000e+00 0.000000e+00
1
Step 508000
Ar -9.473528e-01 0.000000e+00 0.000000e+00
1
Step 509000
Ar -9.377832e-01 0.000000e+00 0.000000e+00
1
Step 510000
Ar -9.422222e-01 0.000000e+00 0.000000e+00
1
Step 511000
Ar -1.069579e+00 0.000000e+00 0.000000e+00
1
Step 512000
Ar -1.071531e+00 0.000000e+00 0.000000e+00
1
Step 513000
Ar -1.069914e+00 0.000000e+00 0.000000e+00
1
Step 514000
Ar -1.069237e+00 0.000000e+00 0.000000e+00
1
Step 515000
Ar -1.074058e+00 0.000000e+00 0.000000e+00
1
Step 516000
Ar -1.012236e+00 0.000000e+00 0.000000e+00
1
Step 517000
Ar -9.820632e-01 0.000000e+00 0.000000e+00
1
Step 518000
Ar -9.313299e-01 0.000000e+00 0.000000e+00
1
Step 519000
Ar -9.282861e-01 0.000000e+00 0.000000e+00
1
Step 520000
Ar -9.258838e-01 0.000000e+00 0.000000e+00
1
Step 521000
Ar -1.017808e+00 0.000000e+00 0.000000e+00
1
Step 522000
Ar -8.762318e-01 0.000000e+00 0.000000e+00
1
Step 523000
Ar -9.155219e-01 0.000000e+00 0.000000e+00
1
Step 524000
Ar -9.160494e-01 0.000000e+00 0.000000e+00
1
Step 525000
Ar -9.175192e-01 0.000000e+00 0.000000e+00
1
Step 526000
Ar -9.019190e-01 0.000000e+00 0.000000e+00
1
Step 527000
Ar -9.085207e-01 0.000000e+00 0.000000e+00
1
Step 528000
Ar -9.061158e-01 0.000000e+00 0.000000e+00
1
Step 529000
Ar -9.046442e-01 0.000000e+00 0.000000e+00
1
Step 530000
Ar -9.092963e-01 0.000000e+00 0.000000e+00
1
Step 531000
Ar -9.839347e-01 0.000000e+00 0.000000e+00
1
Step 532000
Ar -8.152148e-01 0.000000e+00 0.000000e+00
1
Step 533000
Ar -9.851348e-01 0.000000e+00 0.000000e+00
1
Step 534000
Ar -1.085018e+00 0.000000e+00 0.000000e+00
1
Step 535000
Ar -1.085088e+00 0.000000e+00 0.000000e+00
1
Step 536000
Ar -8.991150e-01 0.000000e+00 0.000000e+00
1
Step 537000
Ar -8.997519e-01 0.000000e+00 0.000000e+00
1
Step 538000
Ar -9.013161e-01 0.000000e+00 0.000000e+00
1
Step 539000
Ar -8.981004e-01 0.000000e+00 0.000000e+00
1
Step 540000
Ar -9.009703e-01 0.000000e+00 0.000000e+00
1
Step 541000
Ar -8.920308e-01 0.000000e+00 0.000000e+00
1
Step 542000
Ar -8.882165e-01 0.000000e+00 0.000000e+00
1
Step 543000
Ar -8.919619e-01 0.000000e+00 0.000000e+00
1
Step 544000
Ar -8.925716e-01 0.000000e+00 0.000000e+00
1
Step 545000
Ar -8.927417e-01 0.000000e+00 0.000000e+00
1
Step 546000
Ar -1.051132e+00 0.000000e+00 0.000000e+00
1
Step 547000
Ar -1.096492e+00 0.000000e+00 0.000000e+00
1
Step 548000
Ar -1.094559e+00 0.000000e+00 0.000000e+00
1
Step 549000
Ar -1.097581e+00 0.000000e+00 0.000000e+00
1
Step 550000
Ar -1.097287e+00 0.000000e+00 0.000000e+00
1
Step 551000
Ar -1.112720e+00 0.000000e+00 0.000000e+00
1
Step 552000
Ar -1.004097e+00 0.000000e+00 0.000000e+00
1
Step 553000
Ar -8.834146e-01 0.000000e+00 0.000000e+00
1
Step 554000
Ar -8.766427e-01 0.000000e+00 0.000000e+00
1
Step 555000
Ar -8.818115e-01 0.000000e+00 0.000000e+00
1
Step 556000
Ar -9.503808e-01 0.000000e+00 0.000000e+00
1
Step 557000
Ar -1.022531e+00 0.000000e+00 0.000000e+00
1
Step 558000
Ar -1.011453e+00 0.000000e+00 0.000000e+00
1
Step 559000
Ar -9.850461e-01 0.000000e+00 0.000000e+00
1
Step 560000
Ar -9.838146e-01 0.000000e+00 0.000000e+00
1
Step 561000
Ar -1.008156e+00 0.000000e+00 0.000000e+00
1
Step 562000
Ar -8.469006e-01 0.000000e+00 0.000000e+00
1
Step 563000
Ar -1.008336e+00 0.000000e+00 0.000000e+00
1
Step 564000
Ar -1.006275e+00 0.000000e+00 0.000000e+00
1
Step 565000
Ar -1.022350e+00 0.000000e+00 0.000000e+00
1
Step 566000
Ar -9.666892e-01 0.000000e+00 0.000000e+00
1
Step 567000
Ar -9.631258e-01 0.000000e+00 0.000000e+00
1
Step 568000
Ar -1.040891e+00 0.000000e+00 0.000000e+00
1
Step 569000
Ar -1.121766e+00 0.000000e+00 0.000000e+00
1
Step 570000
Ar -9.330361e-01 0.000000e+00 0.000000e+00
1
Step 571000
Ar -9.973631e-01 0.000000e+00 0.000000e+00
1
Step 572000
Ar -9.562430e-01 0.000000e+00 0.000000e+00
1
Step 573000
Ar -9.353100e-01 0.000000e+00 0.000000e+00
1
Step 574000
Ar -1.072316e+00 0.000000e+00 0.000000e+00
1
Step 575000
Ar -9.940015e-01 0.000000e+00 0.000000e+00
1
Step 576000
Ar -1.033439e+00 0.000000e+00 0.000000e+00
1
Step 577000
Ar -1.025419e+00 0.000000e+00 0.000000e+00
1
Step 578000
Ar -1.030161e+00 0.000000e+00 0.000000e+00
1
Step 579000
Ar -1.034495e+00 0.000000e+00 0.000000e+00
1
Step 580000
Ar -1.137330e+00 0.000000e+00 0.000000e+00
1
Step 581000
Ar -1.073873e+00 0.000000e+00 0.000000e+00
1
Step 582000
Ar -1.178788e+00 0.000000e+00 0.000000e+00
1
Step 583000
Ar -9.591823e-01 0.000000e+00 0.000000e+00
1
Step 584000
Ar -9.777196e-01 0.000000e+00 0.000000e+00
1
Step 585000
Ar -9.702521e-01 0.000000e+00 0.000000e+00
1
Step 586000
Ar -9.849144e-01 0.000000e+00 0.000000e+00
1
Step 587000
Ar -9.809715e-01 0.000000e+00 0.000000e+00
1
Step 588000
Ar -9.497289e-01 0.000000e+00 0.000000e+00
1
Step 589000
Ar -9.474379e-01 0.000000e+00 0.000000e+00
1
Step 590000
Ar -9.477834e-01 0.000000e+00 0.000000e+00
1
Step 591000
Ar -8.493028e-01 0.000000e+00 0.000000e+00
1
Step 592000
Ar -1.048742e+00 0.000000e+00 0.000000e+00
1
Step 593000
Ar -1.052701e+00 0.000000e+00 0.000000e+00
1
Step 594000
Ar -9.837956e-01 0.000000e+00 0.000000e+00
1
Step 595000
Ar -9.618489e-01 0.000000e+00 0.000000e+00
1
Step 596000
Ar -1.061030e+00 0.000000e+00 0.000000e+00
1
Step 597000
Ar -8.847023e-01 0.000000e+00 0.000000e+00
1
Step 598000
Ar -8.412056e-01 0.000000e+00 0.000000e+00
1
Step 599000
Ar -1.031191e+00 0.000000e+00 0.000000e+00
1
Step 600000
Ar -9.799679e-01 0.000000e+00 0.000000e+00
1
Step 601000
Ar -9.370958e-01 0.000000e+00 0.000000e+00
1
Step 602000
Ar -9.527319e-01 0.000000e+00 0.000000e+00
1
Step 603000
Ar -9.402340e-01 0.000000e+00 0.000000e+00
1
Step 604000
Ar -9.365643e-01 0.000000e+00 0.000000e+00
1
Step 605000
Ar -9.027570e-01 0.000000e+00 0.000000e+00
1
Step 606000
Ar -9.377472e-01 0.000000e+00 0.000000e+00
1
Step 607000
Ar -9.370125e-01 0.000000e+00 0.000000e+00
1
Step 608000
Ar -9.448206e-01 0.000000e+00 0.000000e+00
1
Step 609000
Ar -9.609720e-01 0.000000e+00 0.000000e+00
1
Step 610000
Ar -1.028084e+00 0.000000e+00 0.000000e+00
1
Step 611000
Ar -8.898580e-01 0.000000e+00 0.000000e+00
1
Step 612000
Ar -8.921840e-01 0.000000e+00 0.000000e+00
1
Step 613000
Ar -9.664016e-01 0.000000e+00 0.000000e+00
1
Step 614000
Ar -9.398539e-01 0.000000e+00 0.000000e+00
1
Step 615000
Ar -9.402048e-01 0.000000e+00 0.000000e+00
1
Step 616000
Ar -9.249092e-01 0.000000e+00 0.000000e+00
1
Step 617000
Ar -9.324142e-01 0.000000e+00 0.000000e+00
1
Step 618000
Ar -9.273190e-01 0.000000e+00 0.000000e+00
1
Step 619000
Ar -9.226331e-01 0.000000e+00 0.000000e+00
1
Step 620000
Ar -9.251321e-01 0.000000e+00 0.000000e+00
1
Step 621000
Ar -9.536614e-01 0.000000e+00 0.000000e+00
1
Step 622000
Ar -8.681828e-01 0.000000e+00 0.000000e+00
1
Step 623000
Ar -8.718136e-01 0.000000e+00 0.000000e+00
1
Step 624000
Ar -8.730693e-01 0.000000e+00 0.000000e+00
1
Step 625000
Ar -8.709317e-01 0.000000e+00 0.000000e+00
1
Step 626000
Ar -8.879741e-01 0.000000e+00 0.000000e+00
1
Step 627000
Ar -8.891895e-01 0.000000e+00 0.000000e+00
1
Step 628000
Ar -8.908643e-01 0.000000e+00 0.000000e+00
1
Step 629000
Ar -8.889802e-01 0.000000e+00 0.000000e+00
1
Step 630000
Ar -8.899146e-01 0.000000e+00 0.000000e+00
1
Step 631000
Ar -8.581883e-01 0.000000e+00 0.000000e+00
1
Step 632000
Ar -8.640477e-01 0.000000e+00 0.000000e+00
1
Step 633000
Ar -8.617599e-01 0.000000e+00 0.000000e+00
1
Step 634000
Ar -8.760250e-01 0.000000e+00 0.000000e+00
1
Step 635000
Ar -8.743349e-01 0.000000e+00 0.000000e+00
1
Step 636000
Ar -9.127473e-01 0.000000e+00 0.000000e+00
1
Step 637000
Ar -7.932462e-01 0.000000e+00 0.000000e+00
1
Step 638000
Ar -9.534309e-01 0.000000e+00 0.000000e+00
1
Step 639000
Ar -9.542327e-01 0.000000e+00 0.000000e+00
1
Step 640000
Ar -9.940022e-01 0.000000e+00 0.000000e+00
1
Step 641000
Ar -9.564596e-01 0.000000e+00 0.000000e+00
1
Step 642000
Ar -9.698481e-01 0.000000e+00 0.000000e+00
1
Step 643000
Ar -8.062105e-01 0.000000e+00 0.000000e+00
1
Step 644000
Ar -8.700133e-01 0.000000e+00 0.000000e+00
1
Step 645000
Ar -1.069645e+00 0.000000e+00 0.000000e+00
1
Step 646000
Ar -1.005089e+00 0.000000e+00 0.000000e+00
1
Step 647000
Ar -7.885671e-01 0.000000e+00 0.000000e+00
1
Step 648000
Ar -1.048980e+00 0.000000e+00 0.000000e+00
1
Step 649000
Ar -1.052020e+00 0.000000e+00 0.000000e+00
1
Step 650000
Ar -1.050743e+00 0.000000e+00 0.000000e+00
1
Step 651000
Ar -9.500923e-01 0.000000e+00 0.000000e+00
1
Step 652000