1
Step 120000
Ar 8.970129e-01 0.000000e+00 0.000000e+00
1
Step 121000
Ar 9.122170e-01 0.000000e+00 0.000000e+00
1
Step 122000
Ar 7.746656e-01 0.000000e+00 0.000000e+00
1
Step 123000
Ar 8.309436e-01 0.000000e+00 0.000000e+00
1
Step 124000
Ar 6.814474e-01 0.000000e+00 0.000000e+00
1
Step 125000
Ar 7.222197e-01 0.000000e+00 0.000000e+00
1
Step 126000
Ar 9.316099e-01 0.000000e+00 0.000000e+00
1
Step 127000
Ar 1.087526e+00 0.000000e+00 0.000000e+00
1
Step 128000
Ar 1.242552e+00 0.000000e+00 0.000000e+00
1
Step 129000
Ar 1.175244e+00 0.000000e+00 0.000000e+00
1
Step 130000
Ar 1.063119e+00 0.000000e+00 0.000000e+00
1
Step 131000
Ar 9.337079e-01 0.000000e+00 0.000000e+00
1
Step 132000
Ar 8.677260e-01 0.000000e+00 0.000000e+00
1
Step 133000
Ar 1.128857e+00 0.000000e+00 0.000000e+00
1
Step 134000
Ar 7.901221e-01 0.000000e+00 0.000000e+00
1
Step 135000
Ar 8.251051e-01 0.000000e+00 0.000000e+00
1
Step 136000
Ar 8.584336e-01 0.000000e+00 0.000000e+00
1
Step 137000
Ar 1.248922e+00 0.000000e+00 0.000000e+00
1
Step 138000
Ar 1.277266e+00 0.000000e+00 0.000000e+00
1
Step 139000
Ar 1.024852e+00 0.000000e+00 0.000000e+00
1
Step 140000
Ar 1.030278e+00 0.000000e+00 0.000000e+00
1
Step 141000
Ar 1.099409e+00 0.000000e+00 0.000000e+00
1
Step 142000
Ar 1.149625e+00 0.000000e+00 0.000000e+00
1
Step 143000
Ar 1.206559e+00 0.000000e+00 0.000000e+00
1
Step 144000
Ar 1.322007e+00 0.000000e+00 0.000000e+00
1
Step 145000
Ar 1.310182e+00 0.000000e+00 0.000000e+00
1
Step 146000
Ar 1.129463e+00 0.000000e+00 0.000000e+00
1
Step 147000
Ar 1.202192e+00 0.000000e+00 0.000000e+00
1
Step 148000
Ar 1.224514e+00 0.000000e+00 0.000000e+00
1
Step 149000
Ar 1.205740e+00 0.000000e+00 0.000000e+00
1
Step 150000
Ar 1.221000e+00 0.000000e+00 0.000000e+00
1
Step 151000
Ar 1.143318e+00 0.000000e+00 0.000000e+00
1
Step 152000
Ar 1.194794e+00 0.000000e+00 0.000000e+00
1
Step 153000
Ar 1.200817e+00 0.000000e+00 0.000000e+00
1
Step 154000
Ar 1.225364e+00 0.000000e+00 0.000000e+00
1
Step 155000
Ar 1.201224e+00 0.000000e+00 0.000000e+00
1
Step 156000
Ar 1.179775e+00 0.000000e+00 0.000000e+00
1
Step 157000
Ar 1.175723e+00 0.000000e+00 0.000000e+00
1
Step 158000
Ar 7.618719e-01 0.000000e+00 0.000000e+00
1
Step 159000
Ar 7.587473e-01 0.000000e+00 0.000000e+00
1
Step 160000
Ar 8.589271e-01 0.000000e+00 0.000000e+00
1
Step 161000
Ar 8.634630e-01 0.000000e+00 0.000000e+00
1
Step 162000
Ar 9.235760e-01 0.000000e+00 0.000000e+00
1
Step 163000
Ar 1.010286e+00 0.000000e+00 0.000000e+00
1
Step 164000
Ar 9.311870e-01 0.000000e+00 0.000000e+00
1
Step 165000
Ar 1.088020e+00 0.000000e+00 0.000000e+00
1
Step 166000
Ar 1.081859e+00 0.000000e+00 0.000000e+00
1
Step 167000
Ar 1.103001e+00 0.000000e+00 0.000000e+00
1
Step 168000
Ar 9.046457e-01 0.000000e+00 0.000000e+00
1
Step 169000
Ar 1.009552e+00 0.000000e+00 0.000000e+00
1
Step 170000
Ar 6.065450e-01 0.000000e+00 0.000000e+00
1
Step 171000
Ar 6.251279e-01 0.000000e+00 0.000000e+00
1
Step 172000
Ar 6.123184e-01 0.000000e+00 0.000000e+00
1
Step 173000
Ar 6.900371e-01 0.000000e+00 0.000000e+00
1
Step 174000
Ar 8.215425e-01 0.000000e+00 0.000000e+00
1
Step 175000
Ar 7.262948e-01 0.000000e+00 0.000000e+00
1
Step 176000
Ar 7.222002e-01 0.000000e+00 0.000000e+00
1
Step 177000
Ar 7.224236e-01 0.000000e+00 0.000000e+00
1
Step 178000
Ar 7.219671e-01 0.000000e+00 0.000000e+00
1
Step 179000
Ar 7.216966e-01 0.000000e+00 0.000000e+00
1
Step 180000
Ar 6.850482e-01 0.000000e+00 0.000000e+00
1
Step 181000
Ar 6.210041e-01 0.000000e+00 0.000000e+00
1
Step 182000
Ar 5.749429e-01 0.000000e+00 0.000000e+00
1
Step 183000
Ar 5.745189e-01 0.000000e+00 0.000000e+00
1
Step 184000
Ar 5.441619e-01 0.000000e+00 0.000000e+00
1
Step 185000
Ar 3.484449e-01 0.000000e+00 0.000000e+00
1
Step 186000
Ar 6.066144e-01 0.000000e+00 0.000000e+00
1
Step 187000
Ar 5.478827e-01 0.000000e+00 0.000000e+00
1
Step 188000
Ar 5.739018e-01 0.000000e+00 0.000000e+00
1
Step 189000
Ar 6.364162e-01 0.000000e+00 0.000000e+00
1
Step 190000
Ar 7.701638e-01 0.000000e+00 0.000000e+00
1
Step 191000
Ar 9.602342e-01 0.000000e+00 0.000000e+00
1
Step 192000
Ar 6.644145e-01 0.000000e+00 0.000000e+00
1
Step 193000
Ar 1.013321e+00 0.000000e+00 0.000000e+00
1
Step 194000
Ar 1.009868e+00 0.000000e+00 0.000000e+00
1
Step 195000
Ar 9.896438e-01 0.000000e+00 0.000000e+00
1
Step 196000
Ar 1.013414e+00 0.000000e+00 0.000000e+00
1
Step 197000
Ar 9.992031e-01 0.000000e+00 0.000000e+00
1
Step 198000
Ar 1.070142e+00 0.000000e+00 0.000000e+00
1
Step 199000
Ar 7.476220e-01 0.000000e+00 0.000000e+00
1
Step 200000
Ar 9.323489e-01 0.000000e+00 0.000000e+00
1
Step 201000
Ar 1.008173e+00 0.000000e+00 0.000000e+00
1
Step 202000
Ar 9.501375e-01 0.000000e+00 0.000000e+00
1
Step 203000
Ar 9.162884e-01 0.000000e+00 0.000000e+00
1
Step 204000
Ar 8.974971e-01 0.000000e+00 0.000000e+00
1
Step 205000
Ar 8.282756e-01 0.000000e+00 0.000000e+00
1
Step 206000
Ar 7.489912e-01 0.000000e+00 0.000000e+00
1
Step 207000
Ar 9.569125e-01 0.000000e+00 0.000000e+00
1
Step 208000
Ar 3.645042e-01 0.000000e+00 0.000000e+00
1
Step 209000
Ar 4.445144e-01 0.000000e+00 0.000000e+00
1
Step 210000
Ar 4.670018e-01 0.000000e+00 0.000000e+00
1
Step 211000
Ar 4.552457e-01 0.000000e+00 0.000000e+00
1
Step 212000
Ar 3.760277e-01 0.000000e+00 0.000000e+00
1
Step 213000
Ar 3.391248e-01 0.000000e+00 0.000000e+00
1
Step 214000
Ar 5.314308e-01 0.000000e+00 0.000000e+00
1
Step 215000
Ar 5.441501e-01 0.000000e+00 0.000000e+00
1
Step 216000
Ar 5.517841e-01 0.000000e+00 0.000000e+00
1
Step 217000
Ar 5.188943e-01 0.000000e+00 0.000000e+00
1
Step 218000
Ar 5.955058e-01 0.000000e+00 0.000000e+00
1
Step 219000
Ar 5.463330e-01 0.000000e+00 0.000000e+00
1
Step 220000
Ar 4.174067e-01 0.000000e+00 0.000000e+00
1
Step 221000
Ar 4.248964e-01 0.000000e+00 0.000000e+00
1
Step 222000
Ar 5.103008e-01 0.000000e+00 0.000000e+00
1
Step 223000
Ar 4.479647e-01 0.000000e+00 0.000000e+00
1
Step 224000
Ar 4.164721e-01 0.000000e+00 0.000000e+00
1
Step 225000
Ar 4.502056e-01 0.000000e+00 0.000000e+00
1
Step 226000
Ar 7.728324e-01 0.000000e+00 0.000000e+00
1
Step 227000
Ar 7.231926e-01 0.000000e+00 0.000000e+00
1
Step 228000
Ar 6.910910e-01 0.000000e+00 0.000000e+00
1
Step 229000
Ar 6.990960e-01 0.000000e+00 0.000000e+00
1
Step 230000
Ar 7.177040e-01 0.000000e+00 0.000000e+00
1
Step 231000
Ar 7.644675e-01 0.000000e+00 0.000000e+00
1
Step 232000
Ar 7.452402e-01 0.000000e+00 0.000000e+00
1
Step 233000
Ar 1.072373e+00 0.000000e+00 0.000000e+00
1
Step 234000
Ar 1.012330e+00 0.000000e+00 0.000000e+00
1
Step 235000
Ar 9.793316e-01 0.000000e+00 0.000000e+00
1
Step 236000
Ar 1.076722e+00 0.000000e+00 0.000000e+00
1
Step 237000
Ar 1.032748e+00 0.000000e+00 0.000000e+00
1
Step 238000
Ar 1.304984e+00 0.000000e+00 0.000000e+00
1
Step 239000
Ar 1.255721e+00 0.000000e+00 0.000000e+00
1
Step 240000
Ar 1.264907e+00 0.000000e+00 0.000000e+00
1
Step 241000
Ar 1.322821e+00 0.000000e+00 0.000000e+00
1
Step 242000
Ar 1.252704e+00 0.000000e+00 0.000000e+00
1
Step 243000
Ar 1.378415e+00 0.000000e+00 0.000000e+00
1
Step 244000
Ar 1.310617e+00 0.000000e+00 0.000000e+00
1
Step 245000
Ar 1.455666e+00 0.000000e+00 0.000000e+00
1
Step 246000
Ar 1.429645e+00 0.000000e+00 0.000000e+00
1
Step 247000
Ar 1.423975e+00 0.000000e+00 0.000000e+00
1
Step 248000
Ar 1.453362e+00 0.000000e+00 0.000000e+00
1
Step 249000
Ar 1.348695e+00 0.000000e+00 0.000000e+00
1
Step 250000
Ar 1.301655e+00 0.000000e+00 0.000000e+00
1
Step 251000
Ar 1.374133e+00 0.000000e+00 0.000000e+00
1
Step 252000
Ar 1.346179e+00 0.000000e+00 0.000000e+00
1
Step 253000
Ar 1.353080e+00 0.000000e+00 0.000000e+00
1
Step 254000
Ar 1.117359e+00 0.000000e+00 0.000000e+00
1
Step 255000
Ar 1.140607e+00 0.000000e+00 0.000000e+00
1
Step 256000
Ar 1.152901e+00 0.000000e+00 0.000000e+00
1
Step 257000
Ar 1.118880e+00 0.000000e+00 0.000000e+00
1
Step 258000
Ar 1.070371e+00 0.000000e+00 0.000000e+00
1
Step 259000
Ar 8.107038e-01 0.000000e+00 0.000000e+00
1
Step 260000
Ar 8.610358e-01 0.000000e+00 0.000000e+00
1
Step 261000
Ar 8.392634e-01 0.000000e+00 0.000000e+00
1
Step 262000
Ar 8.090202e-01 0.000000e+00 0.000000e+00
1
Step 263000
Ar 8.120458e-01 0.000000e+00 0.000000e+00
1
Step 264000
Ar 8.188482e-01 0.000000e+00 0.000000e+00
1
Step 265000
Ar 9.189775e-01 0.000000e+00 0.000000e+00
1
Step 266000
Ar 8.369444e-01 0.000000e+00 0.000000e+00
1
Step 267000
Ar 8.482935e-01 0.000000e+00 0.000000e+00
1
Step 268000
Ar 1.207769e+00 0.000000e+00 0.000000e+00
1
Step 269000
Ar 1.277317e+00 0.000000e+00 0.000000e+00
1
Step 270000
Ar 1.244307e+00 0.000000e+00 0.000000e+00
1
Step 271000
Ar 1.228277e+00 0.000000e+00 0.000000e+00
1
Step 272000
Ar 1.191592e+00 0.000000e+00 0.000000e+00
1
Step 273000
Ar 1.329732e+00 0.000000e+00 0.000000e+00
1
Step 274000
Ar 1.101780e+00 0.000000e+00 0.000000e+00
1
Step 275000
Ar 1.098333e+00 0.000000e+00 0.000000e+00
1
Step 276000
Ar 1.098804e+00 0.000000e+00 0.000000e+00
1
Step 277000
Ar 8.813516e-01 0.000000e+00 0.000000e+00
1
Step 278000
Ar 8.680257e-01 0.000000e+00 0.000000e+00
1
Step 279000
Ar 7.967024e-01 0.000000e+00 0.000000e+00
1
Step 280000
Ar 8.066101e-01 0.000000e+00 0.000000e+00
1
Step 281000
Ar 8.678179e-01 0.000000e+00 0.000000e+00
1
Step 282000
Ar 8.683895e-01 0.000000e+00 0.000000e+00
1
Step 283000
Ar 8.637849e-01 0.000000e+00 0.000000e+00
1
Step 284000
Ar 8.284741e-01 0.000000e+00 0.000000e+00
1
Step 285000
Ar 9.271797e-01 0.000000e+00 0.000000e+00
1
Step 286000
Ar 9.001527e-01 0.000000e+00 0.000000e+00
1
Step 287000
Ar 1.008129e+00 0.000000e+00 0.000000e+00
1
Step 288000
Ar 7.848091e-01 0.000000e+00 0.000000e+00
1
Step 289000
Ar 7.808108e-01 0.000000e+00 0.000000e+00
1
Step 290000
Ar 7.799166e-01 0.000000e+00 0.000000e+00
1
Step 291000
Ar 1.356226e+00 0.000000e+00 0.000000e+00
1
Step 292000
Ar 1.201800e+00 0.000000e+00 0.000000e+00
1
Step 293000
Ar 1.302766e+00 0.000000e+00 0.000000e+00
1
Step 294000
Ar 1.329180e+00 0.000000e+00 0.000000e+00
1
Step 295000
Ar 1.224430e+00 0.000000e+00 0.000000e+00
1
Step 296000
Ar 1.281811e+00 0.000000e+00 0.000000e+00
1
Step 297000
Ar 1.250779e+00 0.000000e+00 0.000000e+00
1
Step 298000
Ar 1.251562e+00 0.000000e+00 0.000000e+00
1
Step 299000
Ar 1.203925e+00 0.000000e+00 0.000000e+00
1
Step 300000
Ar 1.228614e+00 0.000000e+00 0.000000e+00
1
Step 301000
Ar 1.225239e+00 0.000000e+00 0.000000e+00
1
Step 302000
Ar 1.229981e+00 0.000000e+00 0.000000e+00
1
Step 303000
Ar 1.255454e+00 0.000000e+00 0.000000e+00
1
Step 304000
Ar 1.253358e+00 0.000000e+00 0.000000e+00
1
Step 305000
Ar 1.312854e+00 0.000000e+00 0.000000e+00
1
Step 306000
Ar 1.148601e+00 0.000000e+00 0.000000e+00
1
Step 307000
Ar 1.022158e+00 0.000000e+00 0.000000e+00
1
Step 308000
Ar 1.013360e+00 0.000000e+00 0.000000e+00
1
Step 309000
Ar 1.120163e+00 0.000000e+00 0.000000e+00
1
Step 310000
Ar 1.007262e+00 0.000000e+00 0.000000e+00
1
Step 311000
Ar 1.040910e+00 0.000000e+00 0.000000e+00
1
Step 312000
Ar 1.124939e+00 0.000000e+00 0.000000e+00
1
Step 313000
Ar 1.106874e+00 0.000000e+00 0.000000e+00
1
Step 314000
Ar 8.531783e-01 0.000000e+00 0.000000e+00
1
Step 315000
Ar 8.740795e-01 0.000000e+00 0.000000e+00
1
Step 316000
Ar 1.049305e+00 0.000000e+00 0.000000e+00
1
Step 317000
Ar 1.061520e+00 0.000000e+00 0.000000e+00
1
Step 318000
Ar 1.033828e+00 0.000000e+00 0.000000e+00
1
Step 319000
Ar 1.024099e+00 0.000000e+00 0.000000e+00
1
Step 320000
Ar 1.029820e+00 0.000000e+00 0.000000e+00
1
Step 321000
Ar 8.637693e-01 0.000000e+00 0.000000e+00
1
Step 322000
Ar 1.860960e-01 0.000000e+00 0.000000e+00
1
Step 323000
Ar 2.508234e-01 0.000000e+00 0.000000e+00
1
Step 324000
Ar 1.751479e-01 0.000000e+00 0.000000e+00
1
Step 325000
Ar 2.441750e-01 0.000000e+00 0.000000e+00
1
Step 326000
Ar 2.253059e-01 0.000000e+00 0.000000e+00
1
Step 327000
Ar 2.603894e-01 0.000000e+00 0.000000e+00
1
Step 328000
Ar 2.606617e-01 0.000000e+00 0.000000e+00
1
Step 329000
Ar 1.283719e-01 0.000000e+00 0.000000e+00
1
Step 330000
Ar 2.119685e-01 0.000000e+00 0.000000e+00
1
Step 331000
Ar 2.175848e-01 0.000000e+00 0.000000e+00
1
Step 332000
Ar 4.389784e-01 0.000000e+00 0.000000e+00
1
Step 333000
Ar 4.374825e-01 0.000000e+00 0.000000e+00
1
Step 334000
Ar 4.690143e-01 0.000000e+00 0.000000e+00
1
Step 335000
Ar -7.659266e-01 0.000000e+00 0.000000e+00
1
Step 336000
Ar -5.868907e-01 0.000000e+00 0.000000e+00
1
Step 337000
Ar -1.033219e+00 0.000000e+00 0.000000e+00
1
Step 338000
Ar -6.909874e-01 0.000000e+00 0.000000e+00
1
Step 339000
Ar -9.316162e-01 0.000000e+00 0.000000e+00
1
Step 340000
Ar -6.794816e-01 0.000000e+00 0.000000e+00
1
Step 341000
Ar -6.532388e-01 0.000000e+00 0.000000e+00
1
Step 342000
Ar -8.586850e-01 0.000000e+00 0.000000e+00
1
Step 343000
Ar -8.763960e-01 0.000000e+00 0.000000e+00
1
Step 344000
Ar -7.720801e-01 0.000000e+00 0.000000e+00
1
Step 345000
Ar -8.065307e-01 0.000000e+00 0.000000e+00
1
Step 346000
Ar -7.975251e-01 0.000000e+00 0.000000e+00
1
Step 347000
Ar -8.542961e-01 0.000000e+00 0.000000e+00
1
Step 348000
Ar -9.771997e-01 0.000000e+00 0.000000e+00
1
Step 349000
Ar -9.463485e-01 0.000000e+00 0.000000e+00
1
Step 350000
Ar -6.360912e-01 0.000000e+00 0.000000e+00
1
Step 351000
Ar -8.517238e-01 0.000000e+00 0.000000e+00
1
Step 352000
Ar -6.487245e-01 0.000000e+00 0.000000e+00
1
Step 353000
Ar -6.669028e-01 0.000000e+00 0.000000e+00
1
Step 354000
Ar -8.132465e-01 0.000000e+00 0.000000e+00
1
Step 355000
Ar -8.820276e-01 0.000000e+00 0.000000e+00
1
Step 356000
Ar -9.936313e-01 0.000000e+00 0.000000e+00
1
Step 357000
Ar -9.422510e-01 0.000000e+00 0.000000e+00
1
Step 358000
Ar -1.106745e+00 0.000000e+00 0.000000e+00
1
Step 359000
Ar -1.275357e+00 0.000000e+00 0.000000e+00
1
Step 360000
Ar -1.232888e+00 0.000000e+00 0.000000e+00
1
Step 361000
Ar -1.239050e+00 0.000000e+00 0.000000e+00
1
Step 362000
Ar -1.202002e+00 0.000000e+00 0.000000e+00
1
Step 363000
Ar -1.155983e+00 0.000000e+00 0.000000e+00
1
Step 364000
Ar -1.108802e+00 0.000000e+00 0.000000e+00
1
Step 365000
Ar -1.085857e+00 0.000000e+00 0.000000e+00
1
Step 366000
Ar -1.087229e+00 0.000000e+00 0.000000e+00
1
Step 367000
Ar -1.055897e+00 0.000000e+00 0.000000e+00
1
Step 368000
Ar -1.162520e+00 0.000000e+00 0.000000e+00
1
Step 369000
Ar -1.161892e+00 0.000000e+00 0.000000e+00
1
Step 370000
Ar -1.116444e+00 0.000000e+00 0.000000e+00
1
Step 371000
Ar -9.960927e-01 0.000000e+00 0.000000e+00
1
Step 372000
Ar -1.059121e+00 0.000000e+00 0.000000e+00
1
Step 373000
Ar -1.078592e+00 0.000000e+00 0.000000e+00
1
Step 374000
Ar -1.085396e+00 0.000000e+00 0.000000e+00
1
Step 375000
Ar -9.408016e-01 0.000000e+00 0.000000e+00
1
Step 376000
Ar -1.029819e+00 0.000000e+00 0.000000e+00
1
Step 377000
Ar -1.079628e+00 0.000000e+00 0.000000e+00
1
Step 378000
Ar -1.083125e+00 0.000000e+00 0.000000e+00
1
Step 379000
Ar -1.233805e+00 0.000000e+00 0.000000e+00
1
Step 380000
Ar -1.298039e+00 0.000000e+00 0.000000e+00
1
Step 381000
Ar -1.260101e+00 0.000000e+00 0.000000e+00
1
Step 382000
Ar -1.255605e+00 0.000000e+00 0.000000e+00
1
Step 383000
Ar -1.123006e+00 0.000000e+00 0.000000e+00
1
Step 384000
Ar -1.137902e+00 0.000000e+00 0.000000e+00
1
Step 385000
Ar -1.166702e+00 0.000000e+00 0.000000e+00
1
Step 386000
Ar -1.199940e+00 0.000000e+00 0.000000e+00
1
Step 387000
Ar -1.214023e+00 0.000000e+00 0.000000e+00
1
Step 388000
Ar -8.053297e-01 0.000000e+00 0.000000e+00
1
Step 389000
Ar -9.074209e-01 0.000000e+00 0.000000e+00
1
Step 390000
Ar -8.567090e-01 0.000000e+00 0.000000e+00
1
Step 391000
Ar -8.506472e-01 0.000000e+00 0.000000e+00
1
Step 392000
Ar -8.404599e-01 0.000000e+00 0.000000e+00
1
Step 393000
Ar -8.995980e-01 0.000000e+00 0.000000e+00
1
Step 394000
Ar -6.694709e-01 0.000000e+00 0.000000e+00
1
Step 395000
Ar -4.371767e-01 0.000000e+00 0.000000e+00
1
Step 396000
Ar -4.749610e-01 0.000000e+00 0.000000e+00
1
Step 397000
Ar -4.422609e-01 0.000000e+00 0.000000e+00
1
Step 398000
Ar -5.323778e-01 0.000000e+00 0.000000e+00
1
Step 399000
Ar -5.777233e-01 0.000000e+00 0.000000e+00
1
Step 400000
Ar -5.775698e-01 0.000000e+00 0.000000e+00
1
Step 401000
Ar -5.416820e-01 0.000000e+00 0.000000e+00
1
Step 402000
Ar -5.241145e-01 0.000000e+00 0.000000e+00
1
Step 403000
Ar -6.276807e-01 0.000000e+00 0.000000e+00
1
Step 404000
Ar -3.616516e-01 0.000000e+00 0.000000e+00
1
Step 405000
Ar -3.827851e-01 0.000000e+00 0.000000e+00
1
Step 406000
Ar -2.216102e-01 0.000000e+00 0.000000e+00
1
Step 407000
Ar -3.108980e-01 0.000000e+00 0.000000e+00
1
Step 408000
Ar -2.198800e-01 0.000000e+00 0.000000e+00
1
Step 409000
Ar -2.068018e-01 0.000000e+00 0.000000e+00
1
Step 410000
Ar 1.207308e-02 0.000000e+00 0.000000e+00
1
Step 411000
Ar -2.452675e-01 0.000000e+00 0.000000e+00
1
Step 412000
Ar -2.466886e-01 0.000000e+00 0.000000e+00
1
Step 413000
Ar -3.337368e-02 0.000000e+00 0.000000e+00
1
Step 414000
Ar 1.004441e-01 0.000000e+00 0.000000e+00
1
Step 415000
Ar -1.419322e-01 0.000000e+00 0.000000e+00
1
Step 416000
Ar -1.229474e-01 0.000000e+00 0.000000e+00
1
Step 417000
Ar -1.173383e-01 0.000000e+00 0.000000e+00
1
Step 418000
Ar 7.080659e-02 0.000000e+00 0.000000e+00
1
Step 419000
Ar 8.142203e-02 0.000000e+00 0.000000e+00
1
Step 420000
Ar 7.954004e-03 0.000000e+00 0.000000e+00
1
Step 421000
Ar 1.055711e-01 0.000000e+00 0.000000e+00
1
Step 422000
Ar 2.170998e-01 0.000000e+00 0.000000e+00
1
Step 423000
Ar 1.532988e-01 0.000000e+00 0.000000e+00
1
Step 424000
Ar 1.574654e-01 0.000000e+00 0.000000e+00
1
Step 425000
Ar 1.573499e-01 0.000000e+00 0.000000e+00
1
Step 426000
Ar 1.722505e-01 0.000000e+00 0.000000e+00
1
Step 427000
Ar 1.505035e-01 0.000000e+00 0.000000e+00
1
Step 428000
Ar 1.544581e-01 0.000000e+00 0.000000e+00
1
Step 429000
Ar 1.910144e-01 0.000000e+00 0.000000e+00
1
Step 430000
Ar -5.245211e-03 0.000000e+00 0.000000e+00
1
Step 431000
Ar 8.617520e-02 0.000000e+00 0.000000e+00
1
Step 432000
Ar -1.194362e-01 0.000000e+00 0.000000e+00
1
Step 433000
Ar -1.531555e-01 0.000000e+00 0.000000e+00
1
Step 434000
Ar -1.228213e-01 0.000000e+00 0.000000e+00
1
Step 435000
Ar 1.403078e-01 0.000000e+00 0.000000e+00
1
Step 436000
Ar 6.723733e-02 0.000000e+00 0.000000e+00
1
Step 437000
Ar 9.159165e-02 0.000000e+00 0.000000e+00
1
Step 438000
Ar 4.576919e-02 0.000000e+00 0.000000e+00
1
Step 439000
Ar 3.385243e-02 0.000000e+00 0.000000e+00
1
Step 440000
Ar -1.379644e-01 0.000000e+00 0.000000e+00
1
Step 441000
Ar -1.723526e-01 0.000000e+00 0.000000e+00
1
Step 442000
Ar 7.427292e-03 0.000000e+00 0.000000e+00
1
Step 443000
Ar -1.279444e-02 0.000000e+00 0.000000e+00
1
Step 444000
Ar -1.524495e-02 0.000000e+00 0.000000e+00
1
Step 445000
Ar -1.278796e-01 0.000000e+00 0.000000e+00
1
Step 446000
Ar -1.422218e-01 0.000000e+00 0.000000e+00
1
Step 447000
Ar -1.311510e-01 0.000000e+00 0.000000e+00
1
Step 448000
Ar -5.977395e-01 0.000000e+00 0.000000e+00
1
Step 449000
Ar -6.802348e-01 0.000000e+00 0.000000e+00
1
Step 450000
Ar -6.835165e-01 0.000000e+00 0.000000e+00
1
Step 451000
Ar -6.346602e-01 0.000000e+00 0.000000e+00
1
Step 452000
Ar -6.374204e-01 0.000000e+00 0.000000e+00
1
Step 453000
Ar -7.908309e-01 0.000000e+00 0.000000e+00
1
Step 454000
Ar -9.111109e-01 0.000000e+00 0.000000e+00
1
Step 455000
Ar -9.283327e-01 0.000000e+00 0.000000e+00
1
Step 456000
Ar -8.659947e-01 0.000000e+00 0.000000e+00
1
Step 457000
Ar -7.337510e-01 0.000000e+00 0.000000e+00
1
Step 458000
Ar -7.759892e-01 0.000000e+00 0.000000e+00
1
Step 459000
Ar -9.450086e-01 0.000000e+00 0.000000e+00
1
Step 460000
Ar -1.029652e+00 0.000000e+00 0.000000e+00
1
Step 461000
Ar -8.508563e-01 0.000000e+00 0.000000e+00
1
Step 462000
Ar -9.283411e-01 0.000000e+00 0.000000e+00
1
Step 463000
Ar -7.504540e-01 0.000000e+00 0.000000e+00
1
Step 464000
Ar -7.545967e-01 0.000000e+00 0.000000e+00
1
Step 465000
Ar -7.497078e-01 0.000000e+00 0.000000e+00
1
Step 466000
Ar -1.001312e+00 0.000000e+00 0.000000e+00
1
Step 467000
Ar -9.891877e-01 0.000000e+00 0.000000e+00
1
Step 468000
Ar -7.910231e-01 0.000000e+00 0.000000e+00
1
Step 469000
Ar -7.877420e-01 0.000000e+00 0.000000e+00
1
Step 470000
Ar -7.332323e-01 0.000000e+00 0.000000e+00
1
Step 471000
Ar -5.790772e-01 0.000000e+00 0.000000e+00
1
Step 472000
Ar -6.743910e-01 0.000000e+00 0.000000e+00
1
Step 473000
Ar -6.798710e-01 0.000000e+00 0.000000e+00
1
Step 474000
Ar -7.058361e-01 0.000000e+00 0.000000e+00
1
Step 475000
Ar -7.097305e-01 0.000000e+00 0.000000e+00
1
Step 476000
Ar -1.076718e+00 0.000000e+00 0.000000e+00
1
Step 477000
Ar -1.019991e+00 0.000000e+00 0.000000e+00
1
Step 478000
Ar -1.021646e+00 0.000000e+00 0.000000e+00
1
Step 479000
Ar -1.026604e+00 0.000000e+00 0.000000e+00
1
Step 480000
Ar -1.027680e+00 0.000000e+00 0.000000e+00
1
Step 481000
Ar -1.054682e+00 0.000000e+00 0.000000e+00
1
Step 482000
Ar -1.020248e+00 0.000000e+00 0.000000e+00
1
Step 483000
Ar -1.197368e+00 0.000000e+00 0.000000e+00
1
Step 484000
Ar -1.214373e+00 0.000000e+00 0.000000e+00
1
Step 485000
Ar -9.584332e-01 0.000000e+00 0.000000e+00
1
Step 486000
Ar -8.912311e-01 0.000000e+00 0.000000e+00
1
Step 487000
Ar -1.097932e+00 0.000000e+00 0.000000e+00
1
Step 488000
Ar -1.177712e+00 0.000000e+00 0.000000e+00
1
Step 489000
Ar -8.847945e-01 0.000000e+00 0.000000e+00
1
Step 490000
Ar -8.842726e-01 0.000000e+00 0.000000e+00
1
Step 491000
Ar -8.253591e-01 0.000000e+00 0.000000e+00
1
Step 492000
Ar -8.331309e-01 0.000000e+00 0.000000e+00
1
Step 493000
Ar -8.204644e-01 0.000000e+00 0.000000e+00
1
Step 494000
Ar -7.744924e-01 0.000000e+00 0.000000e+00
1
Step 495000
Ar -8.576090e-01 0.000000e+00 0.000000e+00
1
Step 496000
Ar -8.774563e-01 0.000000e+00 0.000000e+00
1
Step 497000
Ar -8.844873e-01 0.000000e+00 0.000000e+00
1
Step 498000
Ar -9.615678e-01 0.000000e+00 0.000000e+00
1
Step 499000
Ar -1.133027e+00 0.000000e+00 0.000000e+00
1
Step 500000
Ar -1.053746e+00 0.000000e+00 0.000000e+00
1
Step 501000
Ar -1.065692e+00 0.000000e+00 0.000000e+00
1
Step 502000
Ar -9.569834e-01 0.000000e+00 0.000000e+00
1
Step 503000
Ar -7.136715e-01 0.000000e+00 0.000000e+00
1
Step 504000
Ar -7.095857e-01 0.000000e+00 0.000000e+00
1
Step 505000
Ar -4.736465e-01 0.000000e+00 0.000000e+00
1
Step 506000
Ar -5.178780e-01 0.000000e+00 0.000000e+00
1
Step 507000
Ar -5.153029e-01 0.000000e+00 0.000000e+00
1
Step 508000
Ar -4.782189e-01 0.000000e+00 0.000000e+00
1
Step 509000
Ar -4.753271e-01 0.000000e+00 0.000000e+00
1
Step 510000
Ar -4.698262e-01 0.000000e+00 0.000000e+00
1
Step 511000
Ar -4.988021e-01 0.000000e+00 0.000000e+00
1
Step 512000
Ar -6.029155e-01 0.000000e+00 0.000000e+00
1
Step 513000
Ar -5.842482e-01 0.000000e+00 0.000000e+00
1
Step 514000
Ar -6.242096e-01 0.000000e+00 0.000000e+00
1
Step 515000
Ar -6.811150e-01 0.000000e+00 0.000000e+00
1
Step 516000
Ar -7.720920e-01 0.000000e+00 0.000000e+00
1
Step 517000
Ar -7.722007e-01 0.000000e+00 0.000000e+00
1
Step 518000
Ar -7.759025e-01 0.000000e+00 0.000000e+00
1
Step 519000
Ar -7.745745e-01 0.000000e+00 0.000000e+00
1
Step 520000
Ar -7.766594e-01 0.000000e+00 0.000000e+00
1
Step 521000
Ar -7.904526e-01 0.000000e+00 0.000000e+00
1
Step 522000
Ar -7.748926e-01 0.000000e+00 0.000000e+00
1
Step 523000
Ar -9.264093e-01 0.000000e+00 0.000000e+00
1
Step 524000
Ar -8.078134e-01 0.000000e+00 0.000000e+00
1
Step 525000
Ar -7.569098e-01 0.000000e+00 0.000000e+00
1
Step 526000
Ar -8.773812e-01 0.000000e+00 0.000000e+00
1
Step 527000
Ar -8.536873e-01 0.000000e+00 0.000000e+00
1
Step 528000
Ar -8.306164e-01 0.000000e+00 0.000000e+00
1
Step 529000
Ar -6.775033e-01 0.000000e+00 0.000000e+00
1
Step 530000
Ar -5.634612e-01 0.000000e+00 0.000000e+00
1
Step 531000
Ar -6.566015e-01 0.000000e+00 0.000000e+00
1
Step 532000
Ar -5.786824e-01 0.000000e+00 0.000000e+00
1
Step 533000
Ar -7.359395e-01 0.000000e+00 0.000000e+00
1
Step 534000
Ar -2.969636e-01 0.000000e+00 0.000000e+00
1
Step 535000
Ar -2.957481e-01 0.000000e+00 0.000000e+00
1
Step 536000
Ar -2.770932e-01 0.000000e+00 0.000000e+00
1
Step 537000
Ar -2.814881e-01 0.000000e+00 0.000000e+00
1
Step 538000
Ar -2.902820e-01 0.000000e+00 0.000000e+00
1
Step 539000
Ar -2.183617e-01 0.000000e+00 0.000000e+00
1
Step 540000
Ar -2.210293e-01 0.000000e+00 0.000000e+00
1
Step 541000
Ar -3.999061e-01 0.000000e+00 0.000000e+00
1
Step 542000
Ar -3.928104e-01 0.000000e+00 0.000000e+00
1
Step 543000
Ar -3.903334e-01 0.000000e+00 0.000000e+00
1
Step 544000
Ar -4.433710e-01 0.000000e+00 0.000000e+00
1
Step 545000
Ar -4.341025e-01 0.000000e+00 0.000000e+00
1
Step 546000
Ar -4.262008e-01 0.000000e+00 0.000000e+00
1
Step 547000
Ar -4.279307e-01 0.000000e+00 0.000000e+00
1
Step 548000
Ar -3.730416e-01 0.000000e+00 0.000000e+00
1
Step 549000
Ar -4.946339e-01 0.000000e+00 0.000000e+00
1
Step 550000
Ar -3.919164e-01 0.000000e+00 0.000000e+00
1
Step 551000
Ar -4.402108e-01 0.000000e+00 0.000000e+00
1
Step 552000
Ar -4.099041e-01 0.000000e+00 0.000000e+00
1
Step 553000
Ar -4.951472e-01 0.000000e+00 0.000000e+00
1
Step 554000
Ar -4.687564e-01 0.000000e+00 0.000000e+00
1
Step 555000
Ar -1.141400e+00 0.000000e+00 0.000000e+00
1
Step 556000
Ar -1.076758e+00 0.000000e+00 0.000000e+00
1
Step 557000
Ar -1.074534e+00 0.000000e+00 0.000000e+00
1
Step 558000
Ar -1.072434e+00 0.000000e+00 0.000000e+00
1
Step 559000
Ar -1.082431e+00 0.000000e+00 0.000000e+00
1
Step 560000
Ar -1.074425e+00 0.000000e+00 0.000000e+00
1
Step 561000
Ar -1.063812e+00 0.000000e+00 0.000000e+00
1
Step 562000
Ar -1.042965e+00 0.000000e+00 0.000000e+00
1
Step 563000
Ar -1.057686e+00 0.000000e+00 0.000000e+00
1
Step 564000
Ar -1.044587e+00 0.000000e+00 0.000000e+00
1
Step 565000
Ar -1.061089e+00 0.000000e+00 0.000000e+00
1
Step 566000
Ar -1.130388e+00 0.000000e+00 0.000000e+00
1
Step 567000
Ar -1.058386e+00 0.000000e+00 0.000000e+00
1
Step 568000
Ar -1.087504e+00 0.000000e+00 0.000000e+00
1
Step 569000
Ar -1.291787e+00 0.000000e+00 0.000000e+00
1
Step 570000
Ar -1.303638e+00 0.000000e+00 0.000000e+00
1
Step 571000
Ar -1.299141e+00 0.000000e+00 0.000000e+00
1
Step 572000
Ar -1.376547e+00 0.000000e+00 0.000000e+00
1
Step 573000
Ar -1.390933e+00 0.000000e+00 0.000000e+00
1
Step 574000
Ar -1.363258e+00 0.000000e+00 0.000000e+00
1
Step 575000
Ar -1.292429e+00 0.000000e+00 0.000000e+00
1
Step 576000
Ar -1.269786e+00 0.000000e+00 0.000000e+00
1
Step 577000
Ar -1.364534e+00 0.000000e+00 0.000000e+00
1
Step 578000
Ar -1.388597e+00 0.000000e+00 0.000000e+00
1
Step 579000
Ar -1.181564e+00 0.000000e+00 0.000000e+00
1
Step 580000
Ar -1.181573e+00 0.000000e+00 0.000000e+00
1
Step 581000
Ar -1.151864e+00 0.000000e+00 0.000000e+00
1
Step 582000
Ar -1.179547e+00 0.000000e+00 0.000000e+00
1
Step 583000
Ar -9.564875e-01 0.000000e+00 0.000000e+00
1
Step 584000
Ar -9.603149e-01 0.000000e+00 0.000000e+00
1
Step 585000
Ar -9.751002e-01 0.000000e+00 0.000000e+00
1
Step 586000
Ar -9.686948e-01 0.000000e+00 0.000000e+00
1
Step 587000
Ar -9.728600e-01 0.000000e+00 0.000000e+00
1
Step 588000
Ar -9.884996e-01 0.000000e+00 0.000000e+00
1
Step 589000
Ar -9.930454e-01 0.000000e+00 0.000000e+00
1
Step 590000
Ar -9.321782e-01 0.000000e+00 0.000000e+00
1
Step 591000
Ar -9.075175e-01 0.000000e+00 0.000000e+00
1
Step 592000
Ar -7.281210e-01 0.000000e+00 0.000000e+00
1
Step 593000
Ar -6.738282e-01 0.000000e+00 0.000000e+00
1
Step 594000
Ar -7.574723e-01 0.000000e+00 0.000000e+00
1
Step 595000
Ar -7.391475e-01 0.000000e+00 0.000000e+00
1
Step 596000
Ar -7.756080e-01 0.000000e+00 0.000000e+00
1
Step 597000
Ar -9.386071e-01 0.000000e+00 0.000000e+00
1
Step 598000
Ar -1.409163e+00 0.000000e+00 0.000000e+00
1
Step 599000
Ar -1.428867e+00 0.000000e+00 0.000000e+00
1
Step 600000
Ar -1.416224e+00 0.000000e+00 0.000000e+00
1
Step 601000
Ar -1.378567e+00 0.000000e+00 0.000000e+00
1
Step 602000
Ar -1.439763e+00 0.000000e+00 0.000000e+00
1
Step 603000
Ar -1.317860e+00 0.000000e+00 0.000000e+00
1
Step 604000
Ar -1.320133e+00 0.000000e+00 0.000000e+00
1
Step 605000
Ar -1.319917e+00 0.000000e+00 0.000000e+00
1
Step 606000
Ar -1.320657e+00 0.000000e+00 0.000000e+00
1
Step 607000
Ar -1.322360e+00 0.000000e+00 0.000000e+00
1
Step 608000
Ar -1.346724e+00 0.000000e+00 0.000000e+00
1
Step 609000
Ar -1.317671e+00 0.000000e+00 0.000000e+00
1
Step 610000
Ar -1.470543e+00 0.000000e+00 0.000000e+00
1
Step 611000
Ar -1.169267e+00 0.000000e+00 0.000000e+00
1
Step 612000
Ar -1.180797e+00 0.000000e+00 0.000000e+00
1
Step 613000
Ar -1.246204e+00 0.000000e+00 0.000000e+00
1
Step 614000
Ar -1.317501e+00 0.000000e+00 0.000000e+00
1
Step 615000
Ar -1.303587e+00 0.000000e+00 0.000000e+00
1
Step 616000
Ar -1.315252e+00 0.000000e+00 0.000000e+00
1
Step 617000
Ar -1.309058e+00 0.000000e+00 0.000000e+00
1
Step 618000
Ar -1.264213e+00 0.000000e+00 0.000000e+00
1
Step 619000
Ar -1.264670e+00 0.000000e+00 0.000000e+00
1
Step 620000
Ar -1.233926e+00 0.000000e+00 0.000000e+00
1
Step 621000
Ar -1.256419e+00 0.000000e+00 0.000000e+00
1
Step 622000
Ar -1.169858e+00 0.000000e+00 0.000000e+00
1
Step 623000
Ar -1.430214e+00 0.000000e+00 0.000000e+00
1
Step 624000
Ar -1.424275e+00 0.000000e+00 0.000000e+00
1
Step 625000
Ar -1.429433e+00 0.000000e+00 0.000000e+00
1
Step 626000
Ar -1.445868e+00 0.000000e+00 0.000000e+00
1
Step 627000
Ar -1.403675e+00 0.000000e+00 0.000000e+00
1
Step 628000
Ar -1.386362e+00 0.000000e+00 0.000000e+00
1
Step 629000
Ar -1.318148e+00 0.000000e+00 0.000000e+00
1
Step 630000
Ar -1.300006e+00 0.000000e+00 0.000000e+00
1
Step 631000
Ar -1.299657e+00 0.000000e+00 0.000000e+00
1
Step 632000
Ar -9.683760e-01 0.000000e+00 0.000000e+00
1
Step 633000
Ar -1.220245e+00 0.000000e+00 0.000000e+00
1
Step 634000
Ar -1.212733e+00 0.000000e+00 0.000000e+00
1
Step 635000
Ar -1.216915e+00 0.000000e+00 0.000000e+00
1
Step 636000
Ar -1.150944e+00 0.000000e+00 0.000000e+00
1
Step 637000
Ar -6.800809e-01 0.000000e+00 0.000000e+00
1
Step 638000
Ar -7.208207e-01 0.000000e+00 0.000000e+00
1
Step 639000
Ar -7.231934e-01 0.000000e+00 0.000000e+00
1
Step 640000
Ar -7.170649e-01 0.000000e+00 0.000000e+00
1
Step 641000
Ar -5.460045e-01 0.000000e+00 0.000000e+00
1
Step 642000
Ar -5.343163e-01 0.000000e+00 0.000000e+00
1
Step 643000
Ar -5.966714e-01 0.000000e+00 0.000000e+00
1
Step 644000
Ar -4.898792e-01 0.000000e+00 0.000000e+00
1
Step 645000
Ar -4.153391e-01 0.000000e+00 0.000000e+00
1
Step 646000
Ar -4.937598e-01 0.000000e+00 0.000000e+00
1
Step 647000
Ar -5.304700e-01 0.000000e+00 0.000000e+00
1
Step 648000
Ar -5.503925e-01 0.000000e+00 0.000000e+00
1
Step 649000
Ar -5.482162e-01 0.000000e+00 0.000000e+00
1
Step 650000