1
Step 120000
Ar -9.902651e-03 0.000000e+00 0.000000e+00
1
Step 121000
Ar -1.800867e-02 0.000000e+00 0.000000e+00
1
Step 122000
Ar -3.035602e-02 0.000000e+00 0.000000e+00
1
Step 123000
Ar 7.958024e-03 0.000000e+00 0.000000e+00
1
Step 124000
Ar 3.529459e-02 0.000000e+00 0.000000e+00
1
Step 125000
Ar 5.279163e-02 0.000000e+00 0.000000e+00
1
Step 126000
Ar 4.901320e-02 0.000000e+00 0.000000e+00
1
Step 127000
Ar -3.936398e-02 0.000000e+00 0.000000e+00
1
Step 128000
Ar -2.159023e-02 0.000000e+00 0.000000e+00
1
Step 129000
Ar 8.027398e-02 0.000000e+00 0.000000e+00
1
Step 130000
Ar 1.912123e-02 0.000000e+00 0.000000e+00
1
Step 131000
Ar -6.392794e-03 0.000000e+00 0.000000e+00
1
Step 132000
Ar -4.920915e-02 0.000000e+00 0.000000e+00
1
Step 133000
Ar 4.278087e-02 0.000000e+00 0.000000e+00
1
Step 134000
Ar -3.817492e-02 0.000000e+00 0.000000e+00
1
Step 135000
Ar 5.425218e-02 0.000000e+00 0.000000e+00
1
Step 136000
Ar 4.373770e-02 0.000000e+00 0.000000e+00
1
Step 137000
Ar 3.298218e-02 0.000000e+00 0.000000e+00
1
Step 138000
Ar -8.137517e-03 0.000000e+00 0.000000e+00
1
Step 139000
Ar 3.683006e-02 0.000000e+00 0.000000e+00
1
Step 140000
Ar -5.750756e-02 0.000000e+00 0.000000e+00
1
Step 141000
Ar 2.144921e-02 0.000000e+00 0.000000e+00
1
Step 142000
Ar -1.841288e-02 0.000000e+00 0.000000e+00
1
Step 143000
Ar 6.552494e-02 0.000000e+00 0.000000e+00
1
Step 144000
Ar -2.246233e-03 0.000000e+00 0.000000e+00
1
Step 145000
Ar 1.428150e-02 0.000000e+00 0.000000e+00
1
Step 146000
Ar -4.836959e-02 0.000000e+00 0.000000e+00
1
Step 147000
Ar -3.881215e-02 0.000000e+00 0.000000e+00
1
Step 148000
Ar 2.002299e-02 0.000000e+00 0.000000e+00
1
Step 149000
Ar -2.424050e-02 0.000000e+00 0.000000e+00
1
Step 150000
Ar 1.644866e-02 0.000000e+00 0.000000e+00
1
Step 151000
Ar 3.178402e-03 0.000000e+00 0.000000e+00
1
Step 152000
Ar 5.223915e-02 0.000000e+00 0.000000e+00
1
Step 153000
Ar -2.342373e-02 0.000000e+00 0.000000e+00
1
Step 154000
Ar -2.581821e-02 0.000000e+00 0.000000e+00
1
Step 155000
Ar -6.086395e-02 0.000000e+00 0.000000e+00
1
Step 156000
Ar 7.690832e-02 0.000000e+00 0.000000e+00
1
Step 157000
Ar 7.384686e-03 0.000000e+00 0.000000e+00
1
Step 158000
Ar -4.082518e-02 0.000000e+00 0.000000e+00
1
Step 159000
Ar 4.546031e-02 0.000000e+00 0.000000e+00
1
Step 160000
Ar -2.469297e-03 0.000000e+00 0.000000e+00
1
Step 161000
Ar 4.490024e-03 0.000000e+00 0.000000e+00
1
Step 162000
Ar -4.495516e-03 0.000000e+00 0.000000e+00
1
Step 163000
Ar 6.910094e-02 0.000000e+00 0.000000e+00
1
Step 164000
Ar 2.490946e-02 0.000000e+00 0.000000e+00
1
Step 165000
Ar 1.744732e-02 0.000000e+00 0.000000e+00
1
Step 166000
Ar -2.447574e-02 0.000000e+00 0.000000e+00
1
Step 167000
Ar 4.778009e-02 0.000000e+00 0.000000e+00
1
Step 168000
Ar -4.635078e-02 0.000000e+00 0.000000e+00
1
Step 169000
Ar 1.824448e-02 0.000000e+00 0.000000e+00
1
Step 170000
Ar -3.328125e-02 0.000000e+00 0.000000e+00
1
Step 171000
Ar 7.897105e-03 0.000000e+00 0.000000e+00
1
Step 172000
Ar -3.227029e-02 0.000000e+00 0.000000e+00
1
Step 173000
Ar 2.602749e-04 0.000000e+00 0.000000e+00
1
Step 174000
Ar 1.915936e-02 0.000000e+00 0.000000e+00
1
Step 175000
Ar -2.361308e-02 0.000000e+00 0.000000e+00
1
Step 176000
Ar 3.487419e-02 0.000000e+00 0.000000e+00
1
Step 177000
Ar -1.545807e-02 0.000000e+00 0.000000e+00
1
Step 178000
Ar 3.739442e-02 0.000000e+00 0.000000e+00
1
Step 179000
Ar -3.396874e-02 0.000000e+00 0.000000e+00
1
Step 180000
Ar 8.232167e-03 0.000000e+00 0.000000e+00
1
Step 181000
Ar 1.776635e-02 0.000000e+00 0.000000e+00
1
Step 182000
Ar -2.718868e-02 0.000000e+00 0.000000e+00
1
Step 183000
Ar -2.447156e-02 0.000000e+00 0.000000e+00
1
Step 184000
Ar 5.304214e-02 0.000000e+00 0.000000e+00
1
Step 185000
Ar 4.234161e-03 0.000000e+00 0.000000e+00
1
Step 186000
Ar 8.982449e-02 0.000000e+00 0.000000e+00
1
Step 187000
Ar 6.671334e-03 0.000000e+00 0.000000e+00
1
Step 188000
Ar -9.126608e-03 0.000000e+00 0.000000e+00
1
Step 189000
Ar 7.718826e-03 0.000000e+00 0.000000e+00
1
Step 190000
Ar 8.367258e-03 0.000000e+00 0.000000e+00
1
Step 191000
Ar -1.601794e-02 0.000000e+00 0.000000e+00
1
Step 192000
Ar 2.546043e-02 0.000000e+00 0.000000e+00
1
Step 193000
Ar -9.298986e-03 0.000000e+00 0.000000e+00
1
Step 194000
Ar 8.050324e-02 0.000000e+00 0.000000e+00
1
Step 195000
Ar 6.339773e-02 0.000000e+00 0.000000e+00
1
Step 196000
Ar 4.922794e-03 0.000000e+00 0.000000e+00
1
Step 197000
Ar -1.051290e-02 0.000000e+00 0.000000e+00
1
Step 198000
Ar 6.563637e-03 0.000000e+00 0.000000e+00
1
Step 199000
Ar -1.988894e-02 0.000000e+00 0.000000e+00
1
Step 200000
Ar -3.806233e-02 0.000000e+00 0.000000e+00
1
Step 201000
Ar 5.256649e-02 0.000000e+00 0.000000e+00
1
Step 202000
Ar -4.674050e-03 0.000000e+00 0.000000e+00
1
Step 203000
Ar 3.473778e-02 0.000000e+00 0.000000e+00
1
Step 204000
Ar 6.648086e-03 0.000000e+00 0.000000e+00
1
Step 205000
Ar 2.322288e-02 0.000000e+00 0.000000e+00
1
Step 206000
Ar -1.507643e-02 0.000000e+00 0.000000e+00
1
Step 207000
Ar 5.272072e-02 0.000000e+00 0.000000e+00
1
Step 208000
Ar 2.958920e-02 0.000000e+00 0.000000e+00
1
Step 209000
Ar -9.651577e-03 0.000000e+00 0.000000e+00
1
Step 210000
Ar -3.597464e-02 0.000000e+00 0.000000e+00
1
Step 211000
Ar 7.725076e-02 0.000000e+00 0.000000e+00
1
Step 212000
Ar 4.979853e-02 0.000000e+00 0.000000e+00
1
Step 213000
Ar 1.016089e-02 0.000000e+00 0.000000e+00
1
Step 214000
Ar 4.776838e-02 0.000000e+00 0.000000e+00
1
Step 215000
Ar 4.011152e-02 0.000000e+00 0.000000e+00
1
Step 216000
Ar 2.909738e-02 0.000000e+00 0.000000e+00
1
Step 217000
Ar -3.963248e-02 0.000000e+00 0.000000e+00
1
Step 218000
Ar 1.877369e-02 0.000000e+00 0.000000e+00
1
Step 219000
Ar -3.470621e-02 0.000000e+00 0.000000e+00
1
Step 220000
Ar -2.933976e-02 0.000000e+00 0.000000e+00
1
Step 221000
Ar 5.124610e-02 0.000000e+00 0.000000e+00
1
Step 222000
Ar 8.857847e-02 0.000000e+00 0.000000e+00
1
Step 223000
Ar -4.457435e-02 0.000000e+00 0.000000e+00
1
Step 224000
Ar -5.094983e-02 0.000000e+00 0.000000e+00
1
Step 225000
Ar 3.282253e-02 0.000000e+00 0.000000e+00
1
Step 226000
Ar 1.715013e-02 0.000000e+00 0.000000e+00
1
Step 227000
Ar 1.099514e-02 0.000000e+00 0.000000e+00
1
Step 228000
Ar 9.291832e-03 0.000000e+00 0.000000e+00
1
Step 229000
Ar 2.033219e-02 0.000000e+00 0.000000e+00
1
Step 230000
Ar -4.332376e-02 0.000000e+00 0.000000e+00
1
Step 231000
Ar 3.442280e-02 0.000000e+00 0.000000e+00
1
Step 232000
Ar 1.587381e-02 0.000000e+00 0.000000e+00
1
Step 233000
Ar -1.139603e-02 0.000000e+00 0.000000e+00
1
Step 234000
Ar -1.553949e-02 0.000000e+00 0.000000e+00
1
Step 235000
Ar -2.373975e-02 0.000000e+00 0.000000e+00
1
Step 236000
Ar 4.814705e-02 0.000000e+00 0.000000e+00
1
Step 237000
Ar -6.890016e-02 0.000000e+00 0.000000e+00
1
Step 238000
Ar 4.775681e-03 0.000000e+00 0.000000e+00
1
Step 239000
Ar 1.543163e-02 0.000000e+00 0.000000e+00
1
Step 240000
Ar -2.850530e-02 0.000000e+00 0.000000e+00
1
Step 241000
Ar 1.222813e-02 0.000000e+00 0.000000e+00
1
Step 242000
Ar 7.204517e-03 0.000000e+00 0.000000e+00
1
Step 243000
Ar 2.895029e-02 0.000000e+00 0.000000e+00
1
Step 244000
Ar 3.243991e-02 0.000000e+00 0.000000e+00
1
Step 245000
Ar -1.679819e-03 0.000000e+00 0.000000e+00
1
Step 246000
Ar 4.141821e-02 0.000000e+00 0.000000e+00
1
Step 247000
Ar 2.667174e-02 0.000000e+00 0.000000e+00
1
Step 248000
Ar 4.304273e-02 0.000000e+00 0.000000e+00
1
Step 249000
Ar 1.854465e-02 0.000000e+00 0.000000e+00
1
Step 250000
Ar -1.991845e-02 0.000000e+00 0.000000e+00
1
Step 251000
Ar 5.277880e-02 0.000000e+00 0.000000e+00
1
Step 252000
Ar -5.859111e-04 0.000000e+00 0.000000e+00
1
Step 253000
Ar 3.587450e-02 0.000000e+00 0.000000e+00
1
Step 254000
Ar 3.670164e-02 0.000000e+00 0.000000e+00
1
Step 255000
Ar -1.674823e-02 0.000000e+00 0.000000e+00
1
Step 256000
Ar -1.624415e-02 0.000000e+00 0.000000e+00
1
Step 257000
Ar 2.734390e-02 0.000000e+00 0.000000e+00
1
Step 258000
Ar -2.289927e-03 0.000000e+00 0.000000e+00
1
Step 259000
Ar -8.122834e-04 0.000000e+00 0.000000e+00
1
Step 260000
Ar 1.680139e-02 0.000000e+00 0.000000e+00
1
Step 261000
Ar -4.453799e-04 0.000000e+00 0.000000e+00
1
Step 262000
Ar -5.108987e-03 0.000000e+00 0.000000e+00
1
Step 263000
Ar -4.187632e-03 0.000000e+00 0.000000e+00
1
Step 264000
Ar -8.668637e-04 0.000000e+00 0.000000e+00
1
Step 265000
Ar -3.572109e-03 0.000000e+00 0.000000e+00
1
Step 266000
Ar -4.993001e-02 0.000000e+00 0.000000e+00
1
Step 267000
Ar 5.990244e-03 0.000000e+00 0.000000e+00
1
Step 268000
Ar 5.587706e-02 0.000000e+00 0.000000e+00
1
Step 269000
Ar 3.884943e-02 0.000000e+00 0.000000e+00
1
Step 270000
Ar -4.905806e-03 0.000000e+00 0.000000e+00
1
Step 271000
Ar 1.926314e-02 0.000000e+00 0.000000e+00
1
Step 272000
Ar 2.276021e-02 0.000000e+00 0.000000e+00
1
Step 273000
Ar 3.788006e-02 0.000000e+00 0.000000e+00
1
Step 274000
Ar 1.474062e-02 0.000000e+00 0.000000e+00
1
Step 275000
Ar 6.619832e-03 0.000000e+00 0.000000e+00
1
Step 276000
Ar 2.219350e-02 0.000000e+00 0.000000e+00
1
Step 277000
Ar 7.687082e-02 0.000000e+00 0.000000e+00
1
Step 278000
Ar -1.099870e-02 0.000000e+00 0.000000e+00
1
Step 279000
Ar -6.309779e-02 0.000000e+00 0.000000e+00
1
Step 280000
Ar -8.055919e-03 0.000000e+00 0.000000e+00
1
Step 281000
Ar 2.959878e-02 0.000000e+00 0.000000e+00
1
Step 282000
Ar -9.269091e-03 0.000000e+00 0.000000e+00
1
Step 283000
Ar 2.549604e-04 0.000000e+00 0.000000e+00
1
Step 284000
Ar 1.411654e-02 0.000000e+00 0.000000e+00
1
Step 285000
Ar -1.010491e-02 0.000000e+00 0.000000e+00
1
Step 286000
Ar 5.148019e-03 0.000000e+00 0.000000e+00
1
Step 287000
Ar 1.014685e-02 0.000000e+00 0.000000e+00
1
Step 288000
Ar -1.885827e-02 0.000000e+00 0.000000e+00
1
Step 289000
Ar -4.527304e-02 0.000000e+00 0.000000e+00
1
Step 290000
Ar -3.657454e-03 0.000000e+00 0.000000e+00
1
Step 291000
Ar 2.415241e-02 0.000000e+00 0.000000e+00
1
Step 292000
Ar -2.471095e-02 0.000000e+00 0.000000e+00
1
Step 293000
Ar -3.127057e-02 0.000000e+00 0.000000e+00
1
Step 294000
Ar 1.025603e-02 0.000000e+00 0.000000e+00
1
Step 295000
Ar -8.765142e-03 0.000000e+00 0.000000e+00
1
Step 296000
Ar 1.570833e-02 0.000000e+00 0.000000e+00
1
Step 297000
Ar 1.920793e-02 0.000000e+00 0.000000e+00
1
Step 298000
Ar 4.049613e-02 0.000000e+00 0.000000e+00
1
Step 299000
Ar -2.552112e-02 0.000000e+00 0.000000e+00
1
Step 300000
Ar -2.690381e-02 0.000000e+00 0.000000e+00
1
Step 301000
Ar -4.216877e-02 0.000000e+00 0.000000e+00
1
Step 302000
Ar 6.254110e-02 0.000000e+00 0.000000e+00
1
Step 303000
Ar 1.595834e-02 0.000000e+00 0.000000e+00
1
Step 304000
Ar 4.061503e-02 0.000000e+00 0.000000e+00
1
Step 305000
Ar 7.369648e-03 0.000000e+00 0.000000e+00
1
Step 306000
Ar -7.356211e-03 0.000000e+00 0.000000e+00
1
Step 307000
Ar -3.480768e-02 0.000000e+00 0.000000e+00
1
Step 308000
Ar -3.866852e-02 0.000000e+00 0.000000e+00
1
Step 309000
Ar -2.054412e-03 0.000000e+00 0.000000e+00
1
Step 310000
Ar -2.852047e-02 0.000000e+00 0.000000e+00
1
Step 311000
Ar -7.032914e-03 0.000000e+00 0.000000e+00
1
Step 312000
Ar -5.378396e-02 0.000000e+00 0.000000e+00
1
Step 313000
Ar -1.308608e-02 0.000000e+00 0.000000e+00
1
Step 314000
Ar -2.019660e-02 0.000000e+00 0.000000e+00
1
Step 315000
Ar -5.774224e-02 0.000000e+00 0.000000e+00
1
Step 316000
Ar -8.117184e-03 0.000000e+00 0.000000e+00
1
Step 317000
Ar -4.747848e-03 0.000000e+00 0.000000e+00
1
Step 318000
Ar -1.071204e-02 0.000000e+00 0.000000e+00
1
Step 319000
Ar 5.174391e-04 0.000000e+00 0.000000e+00
1
Step 320000
Ar 4.829687e-02 0.000000e+00 0.000000e+00
1
Step 321000
Ar 2.480193e-02 0.000000e+00 0.000000e+00
1
Step 322000
Ar -3.245671e-03 0.000000e+00 0.000000e+00
1
Step 323000
Ar 2.496937e-03 0.000000e+00 0.000000e+00
1
Step 324000
Ar -5.401019e-03 0.000000e+00 0.000000e+00
1
Step 325000
Ar -1.624298e-02 0.000000e+00 0.000000e+00
1
Step 326000
Ar -3.787600e-02 0.000000e+00 0.000000e+00
1
Step 327000
Ar 7.786740e-02 0.000000e+00 0.000000e+00
1
Step 328000
Ar -4.942092e-02 0.000000e+00 0.000000e+00
1
Step 329000
Ar 4.570856e-02 0.000000e+00 0.000000e+00
1
Step 330000
Ar 1.610488e-03 0.000000e+00 0.000000e+00
1
Step 331000
Ar -9.936843e-03 0.000000e+00 0.000000e+00
1
Step 332000
Ar -2.109472e-02 0.000000e+00 0.000000e+00
1
Step 333000
Ar -3.257377e-03 0.000000e+00 0.000000e+00
1
Step 334000
Ar 7.800649e-03 0.000000e+00 0.000000e+00
1
Step 335000
Ar -5.902499e-02 0.000000e+00 0.000000e+00
1
Step 336000
Ar -2.903980e-02 0.000000e+00 0.000000e+00
1
Step 337000
Ar -4.348097e-02 0.000000e+00 0.000000e+00
1
Step 338000
Ar 3.452048e-02 0.000000e+00 0.000000e+00
1
Step 339000
Ar -2.259953e-02 0.000000e+00 0.000000e+00
1
Step 340000
Ar 1.959627e-02 0.000000e+00 0.000000e+00
1
Step 341000
Ar 3.456928e-02 0.000000e+00 0.000000e+00
1
Step 342000
Ar -1.654563e-02 0.000000e+00 0.000000e+00
1
Step 343000
Ar 1.256979e-02 0.000000e+00 0.000000e+00
1
Step 344000
Ar -6.472903e-03 0.000000e+00 0.000000e+00
1
Step 345000
Ar -7.444932e-03 0.000000e+00 0.000000e+00
1
Step 346000
Ar -1.997571e-02 0.000000e+00 0.000000e+00
1
Step 347000
Ar -3.084850e-02 0.000000e+00 0.000000e+00
1
Step 348000
Ar -1.246236e-02 0.000000e+00 0.000000e+00
1
Step 349000
Ar 2.294296e-03 0.000000e+00 0.000000e+00
1
Step 350000
Ar -3.939373e-02 0.000000e+00 0.000000e+00
1
Step 351000
Ar -7.660287e-03 0.000000e+00 0.000000e+00
1
Step 352000
Ar -1.069545e-02 0.000000e+00 0.000000e+00
1
Step 353000
Ar -5.522462e-02 0.000000e+00 0.000000e+00
1
Step 354000
Ar 6.402840e-03 0.000000e+00 0.000000e+00
1
Step 355000
Ar -8.574647e-03 0.000000e+00 0.000000e+00
1
Step 356000
Ar 7.142977e-03 0.000000e+00 0.000000e+00
1
Step 357000
Ar 8.475244e-03 0.000000e+00 0.000000e+00
1
Step 358000
Ar -2.435966e-03 0.000000e+00 0.000000e+00
1
Step 359000
Ar -5.270216e-02 0.000000e+00 0.000000e+00
1
Step 360000
Ar -1.688547e-02 0.000000e+00 0.000000e+00
1
Step 361000
Ar 3.119819e-02 0.000000e+00 0.000000e+00
1
Step 362000
Ar -3.248918e-02 0.000000e+00 0.000000e+00
1
Step 363000
Ar -3.376957e-02 0.000000e+00 0.000000e+00
1
Step 364000
Ar 4.232868e-02 0.000000e+00 0.000000e+00
1
Step 365000
Ar 3.544996e-02 0.000000e+00 0.000000e+00
1
Step 366000
Ar -3.383282e-02 0.000000e+00 0.000000e+00
1
Step 367000
Ar 8.509293e-04 0.000000e+00 0.000000e+00
1
Step 368000
Ar -1.311593e-02 0.000000e+00 0.000000e+00
1
Step 369000
Ar 3.664166e-02 0.000000e+00 0.000000e+00
1
Step 370000
Ar 3.181569e-02 0.000000e+00 0.000000e+00
1
Step 371000
Ar -5.523449e-03 0.000000e+00 0.000000e+00
1
Step 372000
Ar 3.608565e-02 0.000000e+00 0.000000e+00
1
Step 373000
Ar 2.487153e-02 0.000000e+00 0.000000e+00
1
Step 374000
Ar 4.799619e-04 0.000000e+00 0.000000e+00
1
Step 375000
Ar -4.856110e-02 0.000000e+00 0.000000e+00
1
Step 376000
Ar -1.855599e-03 0.000000e+00 0.000000e+00
1
Step 377000
Ar -4.577703e-02 0.000000e+00 0.000000e+00
1
Step 378000
Ar -5.230943e-02 0.000000e+00 0.000000e+00
1
Step 379000
Ar 6.280652e-02 0.000000e+00 0.000000e+00
1
Step 380000
Ar -2.873925e-02 0.000000e+00 0.000000e+00
1
Step 381000
Ar 2.329129e-02 0.000000e+00 0.000000e+00
1
Step 382000
Ar -6.759251e-03 0.000000e+00 0.000000e+00
1
Step 383000
Ar -9.123932e-04 0.000000e+00 0.000000e+00
1
Step 384000
Ar -1.594499e-03 0.000000e+00 0.000000e+00
1
Step 385000
Ar -1.463978e-02 0.000000e+00 0.000000e+00
1
Step 386000
Ar 4.591268e-02 0.000000e+00 0.000000e+00
1
Step 387000
Ar -2.849736e-02 0.000000e+00 0.000000e+00
1
Step 388000
Ar 3.427204e-02 0.000000e+00 0.000000e+00
1
Step 389000
Ar -1.097289e-02 0.000000e+00 0.000000e+00
1
Step 390000
Ar -1.185581e-02 0.000000e+00 0.000000e+00
1
Step 391000
Ar -3.696272e-02 0.000000e+00 0.000000e+00
1
Step 392000
Ar -4.871405e-02 0.000000e+00 0.000000e+00
1
Step 393000
Ar 2.177574e-02 0.000000e+00 0.000000e+00
1
Step 394000
Ar 1.039767e-02 0.000000e+00 0.000000e+00
1
Step 395000
Ar 4.169181e-02 0.000000e+00 0.000000e+00
1
Step 396000
Ar -4.856317e-03 0.000000e+00 0.000000e+00
1
Step 397000
Ar 6.755708e-02 0.000000e+00 0.000000e+00
1
Step 398000
Ar -1.770463e-02 0.000000e+00 0.000000e+00
1
Step 399000
Ar 3.325763e-02 0.000000e+00 0.000000e+00
1
Step 400000
Ar 7.444578e-02 0.000000e+00 0.000000e+00
1
Step 401000
Ar -1.966356e-02 0.000000e+00 0.000000e+00
1
Step 402000
Ar -4.169317e-02 0.000000e+00 0.000000e+00
1
Step 403000
Ar -1.140285e-02 0.000000e+00 0.000000e+00
1
Step 404000
Ar -4.537635e-02 0.000000e+00 0.000000e+00
1
Step 405000
Ar 1.125383e-01 0.000000e+00 0.000000e+00
1
Step 406000
Ar -3.045791e-02 0.000000e+00 0.000000e+00
1
Step 407000
Ar 1.846254e-02 0.000000e+00 0.000000e+00
1
Step 408000
Ar 7.050375e-02 0.000000e+00 0.000000e+00
1
Step 409000
Ar -7.552205e-03 0.000000e+00 0.000000e+00
1
Step 410000
Ar -1.589558e-03 0.000000e+00 0.000000e+00
1
Step 411000
Ar -1.665866e-02 0.000000e+00 0.000000e+00
1
Step 412000
Ar -5.839447e-03 0.000000e+00 0.000000e+00
1
Step 413000
Ar 2.295141e-02 0.000000e+00 0.000000e+00
1
Step 414000
Ar 9.316806e-03 0.000000e+00 0.000000e+00
1
Step 415000
Ar -4.337033e-03 0.000000e+00 0.000000e+00
1
Step 416000
Ar 1.638110e-02 0.000000e+00 0.000000e+00
1
Step 417000
Ar -2.306607e-02 0.000000e+00 0.000000e+00
1
Step 418000
Ar 6.365344e-03 0.000000e+00 0.000000e+00
1
Step 419000
Ar -2.105946e-03 0.000000e+00 0.000000e+00
1
Step 420000
Ar -1.292519e-02 0.000000e+00 0.000000e+00
1
Step 421000
Ar 2.394652e-02 0.000000e+00 0.000000e+00
1
Step 422000
Ar -1.084542e-02 0.000000e+00 0.000000e+00
1
Step 423000
Ar -3.381926e-02 0.000000e+00 0.000000e+00
1
Step 424000
Ar 6.674017e-03 0.000000e+00 0.000000e+00
1
Step 425000
Ar 1.406936e-02 0.000000e+00 0.000000e+00
1
Step 426000
Ar -2.120159e-02 0.000000e+00 0.000000e+00
1
Step 427000
Ar 7.754106e-03 0.000000e+00 0.000000e+00
1
Step 428000
Ar -4.258620e-03 0.000000e+00 0.000000e+00
1
Step 429000
Ar 1.328551e-02 0.000000e+00 0.000000e+00
1
Step 430000
Ar 8.562526e-03 0.000000e+00 0.000000e+00
1
Step 431000
Ar 7.667060e-03 0.000000e+00 0.000000e+00
1
Step 432000
Ar 3.054920e-02 0.000000e+00 0.000000e+00
1
Step 433000
Ar 1.976574e-02 0.000000e+00 0.000000e+00
1
Step 434000
Ar 2.131999e-02 0.000000e+00 0.000000e+00
1
Step 435000
Ar 3.793475e-02 0.000000e+00 0.000000e+00
1
Step 436000
Ar 2.358010e-02 0.000000e+00 0.000000e+00
1
Step 437000
Ar 6.511345e-02 0.000000e+00 0.000000e+00
1
Step 438000
Ar -1.380497e-02 0.000000e+00 0.000000e+00
1
Step 439000
Ar 8.760648e-03 0.000000e+00 0.000000e+00
1
Step 440000
Ar -3.784627e-02 0.000000e+00 0.000000e+00
1
Step 441000
Ar 6.790768e-02 0.000000e+00 0.000000e+00
1
Step 442000
Ar -1.515582e-02 0.000000e+00 0.000000e+00
1
Step 443000
Ar 6.536175e-04 0.000000e+00 0.000000e+00
1
Step 444000
Ar -1.373100e-02 0.000000e+00 0.000000e+00
1
Step 445000
Ar 1.363923e-02 0.000000e+00 0.000000e+00
1
Step 446000
Ar 9.986790e-03 0.000000e+00 0.000000e+00
1
Step 447000
Ar -4.925134e-02 0.000000e+00 0.000000e+00
1
Step 448000
Ar -3.207415e-02 0.000000e+00 0.000000e+00
1
Step 449000
Ar -2.451492e-03 0.000000e+00 0.000000e+00
1
Step 450000
Ar 4.455131e-03 0.000000e+00 0.000000e+00
1
Step 451000
Ar 2.459641e-03 0.000000e+00 0.000000e+00
1
Step 452000
Ar 6.087422e-02 0.000000e+00 0.000000e+00
1
Step 453000
Ar -2.925343e-02 0.000000e+00 0.000000e+00
1
Step 454000
Ar -1.153326e-02 0.000000e+00 0.000000e+00
1
Step 455000
Ar 9.963543e-03 0.000000e+00 0.000000e+00
1
Step 456000
Ar 1.844994e-02 0.000000e+00 0.000000e+00
1
Step 457000
Ar -1.059028e-02 0.000000e+00 0.000000e+00
1
Step 458000
Ar 1.928766e-02 0.000000e+00 0.000000e+00
1
Step 459000
Ar 3.062465e-02 0.000000e+00 0.000000e+00
1
Step 460000
Ar -4.145905e-02 0.000000e+00 0.000000e+00
1
Step 461000
Ar 5.406204e-03 0.000000e+00 0.000000e+00
1
Step 462000
Ar 1.331521e-02 0.000000e+00 0.000000e+00
1
Step 463000
Ar 2.666928e-02 0.000000e+00 0.000000e+00
1
Step 464000
Ar -3.540974e-02 0.000000e+00 0.000000e+00
1
Step 465000
Ar -4.489913e-02 0.000000e+00 0.000000e+00
1
Step 466000
Ar -3.080393e-02 0.000000e+00 0.000000e+00
1
Step 467000
Ar -2.905260e-02 0.000000e+00 0.000000e+00
1
Step 468000
Ar -1.341429e-03 0.000000e+00 0.000000e+00
1
Step 469000
Ar 7.603938e-03 0.000000e+00 0.000000e+00
1
Step 470000
Ar 5.614962e-03 0.000000e+00 0.000000e+00
1
Step 471000
Ar 1.649892e-03 0.000000e+00 0.000000e+00
1
Step 472000
Ar -7.578842e-03 0.000000e+00 0.000000e+00
1
Step 473000
Ar -4.581140e-02 0.000000e+00 0.000000e+00
1
Step 474000
Ar -2.619496e-02 0.000000e+00 0.000000e+00
1
Step 475000
Ar -2.414437e-02 0.000000e+00 0.000000e+00
1
Step 476000
Ar 2.961218e-02 0.000000e+00 0.000000e+00
1
Step 477000
Ar 5.817919e-03 0.000000e+00 0.000000e+00
1
Step 478000
Ar -1.209017e-02 0.000000e+00 0.000000e+00
1
Step 479000
Ar 7.660556e-03 0.000000e+00 0.000000e+00
1
Step 480000
Ar 8.853427e-03 0.000000e+00 0.000000e+00
1
Step 481000
Ar -3.348818e-03 0.000000e+00 0.000000e+00
1
Step 482000
Ar -2.015202e-02 0.000000e+00 0.000000e+00
1
Step 483000
Ar -3.940787e-03 0.000000e+00 0.000000e+00
1
Step 484000
Ar 3.669457e-02 0.000000e+00 0.000000e+00
1
Step 485000
Ar 2.667090e-02 0.000000e+00 0.000000e+00
1
Step 486000
Ar 2.496023e-02 0.000000e+00 0.000000e+00
1
Step 487000
Ar -6.086112e-02 0.000000e+00 0.000000e+00
1
Step 488000
Ar 3.759234e-02 0.000000e+00 0.000000e+00
1
Step 489000
Ar 6.386619e-02 0.000000e+00 0.000000e+00
1
Step 490000
Ar -5.426088e-02 0.000000e+00 0.000000e+00
1
Step 491000
Ar 3.343184e-02 0.000000e+00 0.000000e+00
1
Step 492000
Ar 3.141342e-02 0.000000e+00 0.000000e+00
1
Step 493000
Ar -1.508833e-02 0.000000e+00 0.000000e+00
1
Step 494000
Ar 1.794914e-02 0.000000e+00 0.000000e+00
1
Step 495000
Ar 4.670631e-02 0.000000e+00 0.000000e+00
1
Step 496000
Ar -3.211872e-02 0.000000e+00 0.000000e+00
1
Step 497000
Ar 1.409973e-02 0.000000e+00 0.000000e+00
1
Step 498000
Ar 1.627123e-03 0.000000e+00 0.000000e+00
1
Step 499000
Ar -4.828690e-02 0.000000e+00 0.000000e+00
