1
Step 120000
Ar 9.094417e-01 0.000000e+00 0.000000e+00
1
Step 121000
Ar 1.061769e+00 0.000000e+00 0.000000e+00
1
Step 122000
Ar 9.603890e-01 0.000000e+00 0.000000e+00
1
Step 123000
Ar 9.438905e-01 0.000000e+00 0.000000e+00
1
Step 124000
Ar 8.899441e-01 0.000000e+00 0.000000e+00
1
Step 125000
Ar 7.524748e-01 0.000000e+00 0.000000e+00
1
Step 126000
Ar 8.423164e-01 0.000000e+00 0.000000e+00
1
Step 127000
Ar 9.147672e-01 0.000000e+00 0.000000e+00
1
Step 128000
Ar 9.083568e-01 0.000000e+00 0.000000e+00
1
Step 129000
Ar 9.364226e-01 0.000000e+00 0.000000e+00
1
Step 130000
Ar 9.410754e-01 0.000000e+00 0.000000e+00
1
Step 131000
Ar 9.367477e-01 0.000000e+00 0.000000e+00
1
Step 132000
Ar 9.990757e-01 0.000000e+00 0.000000e+00
1
Step 133000
Ar 9.889546e-01 0.000000e+00 0.000000e+00
1
Step 134000
Ar 1.225973e+00 0.000000e+00 0.000000e+00
1
Step 135000
Ar 1.148612e+00 0.000000e+00 0.000000e+00
1
Step 136000
Ar 1.186773e+00 0.000000e+00 0.000000e+00
1
Step 137000
Ar 1.052892e+00 0.000000e+00 0.000000e+00
1
Step 138000
Ar 1.118047e+00 0.000000e+00 0.000000e+00
1
Step 139000
Ar 1.005544e+00 0.000000e+00 0.000000e+00
1
Step 140000
Ar 1.003588e+00 0.000000e+00 0.000000e+00
1
Step 141000
Ar 1.003163e+00 0.000000e+00 0.000000e+00
1
Step 142000
Ar 9.049710e-01 0.000000e+00 0.000000e+00
1
Step 143000
Ar 8.284034e-01 0.000000e+00 0.000000e+00
1
Step 144000
Ar 1.073582e+00 0.000000e+00 0.000000e+00
1
Step 145000
Ar 1.053294e+00 0.000000e+00 0.000000e+00
1
Step 146000
Ar 1.202360e+00 0.000000e+00 0.000000e+00
1
Step 147000
Ar 1.232954e+00 0.000000e+00 0.000000e+00
1
Step 148000
Ar 1.236970e+00 0.000000e+00 0.000000e+00
1
Step 149000
Ar 1.219120e+00 0.000000e+00 0.000000e+00
1
Step 150000
Ar 1.225323e+00 0.000000e+00 0.000000e+00
1
Step 151000
Ar 1.092562e+00 0.000000e+00 0.000000e+00
1
Step 152000
Ar 1.076254e+00 0.000000e+00 0.000000e+00
1
Step 153000
Ar 1.242379e+00 0.000000e+00 0.000000e+00
1
Step 154000
Ar 1.141050e+00 0.000000e+00 0.000000e+00
1
Step 155000
Ar 1.211742e+00 0.000000e+00 0.000000e+00
1
Step 156000
Ar 1.266658e+00 0.000000e+00 0.000000e+00
1
Step 157000
Ar 1.293754e+00 0.000000e+00 0.000000e+00
1
Step 158000
Ar 1.289845e+00 0.000000e+00 0.000000e+00
1
Step 159000
Ar 1.397585e+00 0.000000e+00 0.000000e+00
1
Step 160000
Ar 1.391678e+00 0.000000e+00 0.000000e+00
1
Step 161000
Ar 1.305160e+00 0.000000e+00 0.000000e+00
1
Step 162000
Ar 1.140979e+00 0.000000e+00 0.000000e+00
1
Step 163000
Ar 1.149401e+00 0.000000e+00 0.000000e+00
1
Step 164000
Ar 1.147510e+00 0.000000e+00 0.000000e+00
1
Step 165000
Ar 1.091813e+00 0.000000e+00 0.000000e+00
1
Step 166000
Ar 7.976783e-01 0.000000e+00 0.000000e+00
1
Step 167000
Ar 6.811150e-01 0.000000e+00 0.000000e+00
1
Step 168000
Ar -1.638689e-01 0.000000e+00 0.000000e+00
1
Step 169000
Ar -1.053169e+00 0.000000e+00 0.000000e+00
1
Step 170000
Ar -8.622852e-01 0.000000e+00 0.000000e+00
1
Step 171000
Ar -8.418492e-01 0.000000e+00 0.000000e+00
1
Step 172000
Ar -9.975621e-01 0.000000e+00 0.000000e+00
1
Step 173000
Ar -1.083098e+00 0.000000e+00 0.000000e+00
1
Step 174000
Ar -1.106575e+00 0.000000e+00 0.000000e+00
1
Step 175000
Ar -9.518962e-01 0.000000e+00 0.000000e+00
1
Step 176000
Ar -9.035445e-01 0.000000e+00 0.000000e+00
1
Step 177000
Ar -6.403103e-01 0.000000e+00 0.000000e+00
1
Step 178000
Ar -6.094915e-01 0.000000e+00 0.000000e+00
1
Step 179000
Ar -8.099942e-01 0.000000e+00 0.000000e+00
1
Step 180000
Ar -7.554117e-01 0.000000e+00 0.000000e+00
1
Step 181000
Ar -7.532221e-01 0.000000e+00 0.000000e+00
1
Step 182000
Ar -7.439174e-01 0.000000e+00 0.000000e+00
1
Step 183000
Ar -8.084847e-01 0.000000e+00 0.000000e+00
1
Step 184000
Ar -8.053327e-01 0.000000e+00 0.000000e+00
1
Step 185000
Ar -7.885973e-01 0.000000e+00 0.000000e+00
1
Step 186000
Ar -1.054347e+00 0.000000e+00 0.000000e+00
1
Step 187000
Ar -1.046635e+00 0.000000e+00 0.000000e+00
1
Step 188000
Ar -7.715644e-01 0.000000e+00 0.000000e+00
1
Step 189000
Ar -8.225027e-01 0.000000e+00 0.000000e+00
1
Step 190000
Ar -7.950683e-01 0.000000e+00 0.000000e+00
1
Step 191000
Ar -7.907956e-01 0.000000e+00 0.000000e+00
1
Step 192000
Ar -7.865600e-01 0.000000e+00 0.000000e+00
1
Step 193000
Ar -7.917169e-01 0.000000e+00 0.000000e+00
1
Step 194000
Ar -7.941385e-01 0.000000e+00 0.000000e+00
1
Step 195000
Ar -7.806296e-01 0.000000e+00 0.000000e+00
1
Step 196000
Ar -8.391701e-01 0.000000e+00 0.000000e+00
1
Step 197000
Ar -8.141052e-01 0.000000e+00 0.000000e+00
1
Step 198000
Ar -1.187273e+00 0.000000e+00 0.000000e+00
1
Step 199000
Ar -1.156777e+00 0.000000e+00 0.000000e+00
1
Step 200000
Ar -1.130502e+00 0.000000e+00 0.000000e+00
1
Step 201000
Ar -1.124926e+00 0.000000e+00 0.000000e+00
1
Step 202000
Ar -1.011070e+00 0.000000e+00 0.000000e+00
1
Step 203000
Ar -1.014292e+00 0.000000e+00 0.000000e+00
1
Step 204000
Ar -9.950442e-01 0.000000e+00 0.000000e+00
1
Step 205000
Ar -9.967265e-01 0.000000e+00 0.000000e+00
1
Step 206000
Ar -9.514722e-01 0.000000e+00 0.000000e+00
1
Step 207000
Ar -9.152707e-01 0.000000e+00 0.000000e+00
1
Step 208000
Ar -9.137615e-01 0.000000e+00 0.000000e+00
1
Step 209000
Ar -1.064276e+00 0.000000e+00 0.000000e+00
1
Step 210000
Ar -1.353580e+00 0.000000e+00 0.000000e+00
1
Step 211000
Ar -1.084897e+00 0.000000e+00 0.000000e+00
1
Step 212000
Ar -1.015804e+00 0.000000e+00 0.000000e+00
1
Step 213000
Ar -1.042216e+00 0.000000e+00 0.000000e+00
1
Step 214000
Ar -1.041141e+00 0.000000e+00 0.000000e+00
1
Step 215000
Ar -1.113922e+00 0.000000e+00 0.000000e+00
1
Step 216000
Ar -1.123929e+00 0.000000e+00 0.000000e+00
1
Step 217000
Ar -1.028812e+00 0.000000e+00 0.000000e+00
1
Step 218000
Ar -1.096666e+00 0.000000e+00 0.000000e+00
1
Step 219000
Ar -1.024983e+00 0.000000e+00 0.000000e+00
1
Step 220000
Ar -1.238658e+00 0.000000e+00 0.000000e+00
1
Step 221000
Ar -1.248357e+00 0.000000e+00 0.000000e+00
1
Step 222000
Ar -1.233393e+00 0.000000e+00 0.000000e+00
1
Step 223000
Ar -1.240532e+00 0.000000e+00 0.000000e+00
1
Step 224000
Ar -1.214002e+00 0.000000e+00 0.000000e+00
1
Step 225000
Ar -1.164682e+00 0.000000e+00 0.000000e+00
1
Step 226000
Ar -1.282636e+00 0.000000e+00 0.000000e+00
1
Step 227000
Ar -1.319814e+00 0.000000e+00 0.000000e+00
1
Step 228000
Ar -1.301555e+00 0.000000e+00 0.000000e+00
1
Step 229000
Ar -1.200561e+00 0.000000e+00 0.000000e+00
1
Step 230000
Ar -1.299286e+00 0.000000e+00 0.000000e+00
1
Step 231000
Ar -1.307814e+00 0.000000e+00 0.000000e+00
1
Step 232000
Ar -1.295964e+00 0.000000e+00 0.000000e+00
1
Step 233000
Ar -9.247729e-01 0.000000e+00 0.000000e+00
1
Step 234000
Ar -8.926383e-01 0.000000e+00 0.000000e+00
1
Step 235000
Ar -9.087223e-01 0.000000e+00 0.000000e+00
1
Step 236000
Ar -9.653575e-01 0.000000e+00 0.000000e+00
1
Step 237000
Ar -9.724526e-01 0.000000e+00 0.000000e+00
1
Step 238000
Ar -9.710398e-01 0.000000e+00 0.000000e+00
1
Step 239000
Ar -9.708992e-01 0.000000e+00 0.000000e+00
1
Step 240000
Ar -9.069567e-01 0.000000e+00 0.000000e+00
1
Step 241000
Ar -1.062040e+00 0.000000e+00 0.000000e+00
1
Step 242000
Ar -1.002413e+00 0.000000e+00 0.000000e+00
1
Step 243000
Ar -9.082597e-01 0.000000e+00 0.000000e+00
1
Step 244000
Ar -9.647473e-01 0.000000e+00 0.000000e+00
1
Step 245000
Ar -1.001130e+00 0.000000e+00 0.000000e+00
1
Step 246000
Ar -1.005212e+00 0.000000e+00 0.000000e+00
1
Step 247000
Ar -1.024479e+00 0.000000e+00 0.000000e+00
1
Step 248000
Ar -1.112877e+00 0.000000e+00 0.000000e+00
1
Step 249000
Ar -1.113183e+00 0.000000e+00 0.000000e+00
1
Step 250000
Ar -1.039331e+00 0.000000e+00 0.000000e+00
1
Step 251000
Ar -1.079496e+00 0.000000e+00 0.000000e+00
1
Step 252000
Ar -6.456504e-01 0.000000e+00 0.000000e+00
1
Step 253000
Ar -6.663018e-01 0.000000e+00 0.000000e+00
1
Step 254000
Ar -6.536280e-01 0.000000e+00 0.000000e+00
1
Step 255000
Ar -6.706611e-01 0.000000e+00 0.000000e+00
1
Step 256000
Ar -6.591323e-01 0.000000e+00 0.000000e+00
1
Step 257000
Ar -5.525506e-01 0.000000e+00 0.000000e+00
1
Step 258000
Ar -6.606623e-01 0.000000e+00 0.000000e+00
1
Step 259000
Ar -7.106128e-01 0.000000e+00 0.000000e+00
1
Step 260000
Ar -6.834028e-01 0.000000e+00 0.000000e+00
1
Step 261000
Ar -6.944293e-01 0.000000e+00 0.000000e+00
1
Step 262000
Ar -7.577371e-01 0.000000e+00 0.000000e+00
1
Step 263000
Ar -6.815026e-01 0.000000e+00 0.000000e+00
1
Step 264000
Ar -7.016455e-01 0.000000e+00 0.000000e+00
1
Step 265000
Ar -7.585139e-01 0.000000e+00 0.000000e+00
1
Step 266000
Ar -7.944958e-01 0.000000e+00 0.000000e+00
1
Step 267000
Ar -7.975286e-01 0.000000e+00 0.000000e+00
1
Step 268000
Ar -9.547603e-01 0.000000e+00 0.000000e+00
1
Step 269000
Ar -9.507660e-01 0.000000e+00 0.000000e+00
1
Step 270000
Ar -9.767354e-01 0.000000e+00 0.000000e+00
1
Step 271000
Ar -8.369794e-01 0.000000e+00 0.000000e+00
1
Step 272000
Ar -3.123727e-01 0.000000e+00 0.000000e+00
1
Step 273000
Ar -2.086261e-01 0.000000e+00 0.000000e+00
1
Step 274000
Ar -6.286061e-01 0.000000e+00 0.000000e+00
1
Step 275000
Ar -7.213795e-01 0.000000e+00 0.000000e+00
1
Step 276000
Ar -7.227508e-01 0.000000e+00 0.000000e+00
1
Step 277000
Ar -7.367312e-01 0.000000e+00 0.000000e+00
1
Step 278000
Ar -7.280531e-01 0.000000e+00 0.000000e+00
1
Step 279000
Ar -6.696227e-01 0.000000e+00 0.000000e+00
1
Step 280000
Ar -9.076147e-01 0.000000e+00 0.000000e+00
1
Step 281000
Ar -8.742395e-01 0.000000e+00 0.000000e+00
1
Step 282000
Ar -8.729396e-01 0.000000e+00 0.000000e+00
1
Step 283000
Ar -8.249942e-01 0.000000e+00 0.000000e+00
1
Step 284000
Ar -8.272611e-01 0.000000e+00 0.000000e+00
1
Step 285000
Ar -8.694824e-01 0.000000e+00 0.000000e+00
1
Step 286000
Ar -6.925351e-01 0.000000e+00 0.000000e+00
1
Step 287000
Ar -6.662227e-01 0.000000e+00 0.000000e+00
1
Step 288000
Ar -5.694448e-01 0.000000e+00 0.000000e+00
1
Step 289000
Ar -4.855310e-01 0.000000e+00 0.000000e+00
1
Step 290000
Ar -4.892684e-01 0.000000e+00 0.000000e+00
1
Step 291000
Ar -4.894285e-01 0.000000e+00 0.000000e+00
1
Step 292000
Ar -5.321387e-01 0.000000e+00 0.000000e+00
1
Step 293000
Ar -5.244655e-01 0.000000e+00 0.000000e+00
1
Step 294000
Ar -2.956839e-01 0.000000e+00 0.000000e+00
1
Step 295000
Ar -4.390450e-01 0.000000e+00 0.000000e+00
1
Step 296000
Ar 7.886868e-04 0.000000e+00 0.000000e+00
1
Step 297000
Ar -2.463429e-02 0.000000e+00 0.000000e+00
1
Step 298000
Ar -7.193351e-02 0.000000e+00 0.000000e+00
1
Step 299000
Ar -7.540534e-02 0.000000e+00 0.000000e+00
1
Step 300000
Ar -6.099172e-02 0.000000e+00 0.000000e+00
1
Step 301000
Ar -1.729307e-01 0.000000e+00 0.000000e+00
1
Step 302000
Ar -2.526603e-01 0.000000e+00 0.000000e+00
1
Step 303000
Ar -3.241289e-01 0.000000e+00 0.000000e+00
1
Step 304000
Ar -3.238276e-01 0.000000e+00 0.000000e+00
1
Step 305000
Ar -3.684435e-01 0.000000e+00 0.000000e+00
1
Step 306000
Ar -9.758099e-02 0.000000e+00 0.000000e+00
1
Step 307000
Ar -9.247686e-02 0.000000e+00 0.000000e+00
1
Step 308000
Ar -8.381977e-02 0.000000e+00 0.000000e+00
1
Step 309000
Ar -1.055228e-01 0.000000e+00 0.000000e+00
1
Step 310000
Ar -1.838670e-01 0.000000e+00 0.000000e+00
1
Step 311000
Ar -1.674342e-01 0.000000e+00 0.000000e+00
1
Step 312000
Ar -3.040195e-01 0.000000e+00 0.000000e+00
1
Step 313000
Ar -2.696898e-01 0.000000e+00 0.000000e+00
1
Step 314000
Ar -2.866836e-01 0.000000e+00 0.000000e+00
1
Step 315000
Ar -1.346848e-01 0.000000e+00 0.000000e+00
1
Step 316000
Ar -2.318643e-01 0.000000e+00 0.000000e+00
1
Step 317000
Ar -2.784891e-01 0.000000e+00 0.000000e+00
1
Step 318000
Ar -2.688331e-01 0.000000e+00 0.000000e+00
1
Step 319000
Ar -2.385545e-01 0.000000e+00 0.000000e+00
1
Step 320000
Ar -2.508737e-01 0.000000e+00 0.000000e+00
1
Step 321000
Ar -1.316039e-01 0.000000e+00 0.000000e+00
1
Step 322000
Ar -1.009302e-01 0.000000e+00 0.000000e+00
1
Step 323000
Ar 6.040680e-01 0.000000e+00 0.000000e+00
1
Step 324000
Ar 6.652672e-01 0.000000e+00 0.000000e+00
1
Step 325000
Ar 5.166608e-01 0.000000e+00 0.000000e+00
1
Step 326000
Ar 4.376880e-01 0.000000e+00 0.000000e+00
1
Step 327000
Ar 3.201817e-01 0.000000e+00 0.000000e+00
1
Step 328000
Ar 4.363833e-01 0.000000e+00 0.000000e+00
1
Step 329000
Ar 3.480159e-01 0.000000e+00 0.000000e+00
1
Step 330000
Ar 3.677344e-01 0.000000e+00 0.000000e+00
1
Step 331000
Ar 3.398262e-01 0.000000e+00 0.000000e+00
1
Step 332000
Ar 3.423673e-01 0.000000e+00 0.000000e+00
1
Step 333000
Ar 3.623335e-01 0.000000e+00 0.000000e+00
1
Step 334000
Ar 2.466401e-01 0.000000e+00 0.000000e+00
1
Step 335000
Ar 2.603657e-01 0.000000e+00 0.000000e+00
1
Step 336000
Ar 2.788479e-01 0.000000e+00 0.000000e+00
1
Step 337000
Ar 3.208673e-01 0.000000e+00 0.000000e+00
1
Step 338000
Ar 2.864194e-01 0.000000e+00 0.000000e+00
1
Step 339000
Ar -1.439898e-01 0.000000e+00 0.000000e+00
1
Step 340000
Ar -1.899236e-01 0.000000e+00 0.000000e+00
1
Step 341000
Ar -2.133504e-01 0.000000e+00 0.000000e+00
1
Step 342000
Ar -2.567701e-01 0.000000e+00 0.000000e+00
1
Step 343000
Ar -2.427680e-01 0.000000e+00 0.000000e+00
1
Step 344000
Ar -3.879519e-01 0.000000e+00 0.000000e+00
1
Step 345000
Ar -3.635046e-01 0.000000e+00 0.000000e+00
1
Step 346000
Ar -3.950919e-01 0.000000e+00 0.000000e+00
1
Step 347000
Ar -3.251572e-01 0.000000e+00 0.000000e+00
1
Step 348000
Ar -6.321851e-01 0.000000e+00 0.000000e+00
1
Step 349000
Ar -6.290956e-01 0.000000e+00 0.000000e+00
1
Step 350000
Ar -6.019051e-01 0.000000e+00 0.000000e+00
1
Step 351000
Ar -5.509387e-01 0.000000e+00 0.000000e+00
1
Step 352000
Ar -5.607892e-01 0.000000e+00 0.000000e+00
1
Step 353000
Ar -5.910922e-01 0.000000e+00 0.000000e+00
1
Step 354000
Ar -4.512522e-01 0.000000e+00 0.000000e+00
1
Step 355000
Ar -4.477627e-01 0.000000e+00 0.000000e+00
1
Step 356000
Ar -4.595010e-01 0.000000e+00 0.000000e+00
1
Step 357000
Ar -4.500096e-01 0.000000e+00 0.000000e+00
1
Step 358000
Ar -4.477246e-01 0.000000e+00 0.000000e+00
1
Step 359000
Ar -4.490453e-01 0.000000e+00 0.000000e+00
1
Step 360000
Ar -4.448429e-01 0.000000e+00 0.000000e+00
1
Step 361000
Ar -4.664998e-01 0.000000e+00 0.000000e+00
1
Step 362000
Ar -4.476003e-01 0.000000e+00 0.000000e+00
1
Step 363000
Ar -4.464249e-01 0.000000e+00 0.000000e+00
1
Step 364000
Ar -5.189145e-01 0.000000e+00 0.000000e+00
1
Step 365000
Ar -6.079551e-01 0.000000e+00 0.000000e+00
1
Step 366000
Ar -6.324950e-01 0.000000e+00 0.000000e+00
1
Step 367000
Ar -6.416458e-01 0.000000e+00 0.000000e+00
1
Step 368000
Ar -6.333306e-01 0.000000e+00 0.000000e+00
1
Step 369000
Ar -6.366770e-01 0.000000e+00 0.000000e+00
1
Step 370000
Ar -6.332961e-01 0.000000e+00 0.000000e+00
1
Step 371000
Ar -6.408220e-01 0.000000e+00 0.000000e+00
1
Step 372000
Ar -6.542245e-01 0.000000e+00 0.000000e+00
1
Step 373000
Ar -6.413187e-01 0.000000e+00 0.000000e+00
1
Step 374000
Ar -4.540645e-01 0.000000e+00 0.000000e+00
1
Step 375000
Ar -5.743876e-01 0.000000e+00 0.000000e+00
1
Step 376000
Ar -5.002028e-01 0.000000e+00 0.000000e+00
1
Step 377000
Ar -4.969761e-01 0.000000e+00 0.000000e+00
1
Step 378000
Ar -4.934504e-01 0.000000e+00 0.000000e+00
1
Step 379000
Ar -6.492964e-01 0.000000e+00 0.000000e+00
1
Step 380000
Ar -8.182441e-01 0.000000e+00 0.000000e+00
1
Step 381000
Ar -7.318721e-01 0.000000e+00 0.000000e+00
1
Step 382000
Ar -7.113628e-01 0.000000e+00 0.000000e+00
1
Step 383000
Ar -8.063040e-01 0.000000e+00 0.000000e+00
1
Step 384000
Ar -7.883845e-01 0.000000e+00 0.000000e+00
1
Step 385000
Ar -7.786651e-01 0.000000e+00 0.000000e+00
1
Step 386000
Ar -7.892003e-01 0.000000e+00 0.000000e+00
1
Step 387000
Ar -8.181010e-01 0.000000e+00 0.000000e+00
1
Step 388000
Ar -1.141052e+00 0.000000e+00 0.000000e+00
1
Step 389000
Ar -1.128266e+00 0.000000e+00 0.000000e+00
1
Step 390000
Ar -1.096370e+00 0.000000e+00 0.000000e+00
1
Step 391000
Ar -1.102633e+00 0.000000e+00 0.000000e+00
1
Step 392000
Ar -1.096703e+00 0.000000e+00 0.000000e+00
1
Step 393000
Ar -1.125778e+00 0.000000e+00 0.000000e+00
1
Step 394000
Ar -1.144690e+00 0.000000e+00 0.000000e+00
1
Step 395000
Ar -1.046144e+00 0.000000e+00 0.000000e+00
1
Step 396000
Ar -1.062375e+00 0.000000e+00 0.000000e+00
1
Step 397000
Ar -5.726777e-02 0.000000e+00 0.000000e+00
1
Step 398000
Ar -1.528259e-02 0.000000e+00 0.000000e+00
1
Step 399000
Ar 5.194444e-02 0.000000e+00 0.000000e+00
1
Step 400000
Ar 9.235029e-02 0.000000e+00 0.000000e+00
1
Step 401000
Ar 9.386007e-02 0.000000e+00 0.000000e+00
1
Step 402000
Ar 1.127272e-02 0.000000e+00 0.000000e+00
1
Step 403000
Ar -3.183750e-02 0.000000e+00 0.000000e+00
1
Step 404000
Ar -3.188323e-02 0.000000e+00 0.000000e+00
1
Step 405000
Ar 1.833259e-02 0.000000e+00 0.000000e+00
1
Step 406000
Ar 6.547194e-03 0.000000e+00 0.000000e+00
1
Step 407000
Ar 6.432723e-03 0.000000e+00 0.000000e+00
1
Step 408000
Ar 5.245603e-02 0.000000e+00 0.000000e+00
1
Step 409000
Ar 1.073135e-01 0.000000e+00 0.000000e+00
1
Step 410000
Ar -3.846551e-03 0.000000e+00 0.000000e+00
1
Step 411000
Ar 2.570711e-01 0.000000e+00 0.000000e+00
1
Step 412000
Ar 2.558498e-01 0.000000e+00 0.000000e+00
1
Step 413000
Ar 1.921327e-01 0.000000e+00 0.000000e+00
1
Step 414000
Ar 2.191485e-01 0.000000e+00 0.000000e+00
1
Step 415000
Ar 1.582903e-01 0.000000e+00 0.000000e+00
1
Step 416000
Ar 1.276726e-01 0.000000e+00 0.000000e+00
1
Step 417000
Ar 1.228343e-01 0.000000e+00 0.000000e+00
1
Step 418000
Ar -1.840576e-01 0.000000e+00 0.000000e+00
1
Step 419000
Ar -1.753376e-01 0.000000e+00 0.000000e+00
1
Step 420000
Ar -2.086920e-01 0.000000e+00 0.000000e+00
1
Step 421000
Ar -5.135708e-02 0.000000e+00 0.000000e+00
1
Step 422000
Ar -5.234741e-02 0.000000e+00 0.000000e+00
1
Step 423000
Ar -4.451931e-02 0.000000e+00 0.000000e+00
1
Step 424000
Ar -1.225300e-02 0.000000e+00 0.000000e+00
1
Step 425000
Ar 3.723400e-01 0.000000e+00 0.000000e+00
1
Step 426000
Ar 3.346417e-01 0.000000e+00 0.000000e+00
1
Step 427000
Ar 3.103924e-01 0.000000e+00 0.000000e+00
1
Step 428000
Ar 3.232723e-01 0.000000e+00 0.000000e+00
1
Step 429000
Ar 3.315184e-01 0.000000e+00 0.000000e+00
1
Step 430000
Ar 3.498690e-01 0.000000e+00 0.000000e+00
1
Step 431000
Ar 3.256871e-01 0.000000e+00 0.000000e+00
1
Step 432000
Ar 2.788098e-01 0.000000e+00 0.000000e+00
1
Step 433000
Ar 3.236877e-01 0.000000e+00 0.000000e+00
1
Step 434000
Ar 3.253851e-01 0.000000e+00 0.000000e+00
1
Step 435000
Ar 3.293457e-01 0.000000e+00 0.000000e+00
1
Step 436000
Ar 3.519614e-01 0.000000e+00 0.000000e+00
1
Step 437000
Ar 2.458706e-01 0.000000e+00 0.000000e+00
1
Step 438000
Ar -1.530618e-02 0.000000e+00 0.000000e+00
1
Step 439000
Ar 2.302898e-01 0.000000e+00 0.000000e+00
1
Step 440000
Ar 2.020016e-01 0.000000e+00 0.000000e+00
1
Step 441000
Ar 1.997230e-01 0.000000e+00 0.000000e+00
1
Step 442000
Ar 2.337922e-01 0.000000e+00 0.000000e+00
1
Step 443000
Ar 2.201506e-01 0.000000e+00 0.000000e+00
1
Step 444000
Ar 3.122519e-01 0.000000e+00 0.000000e+00
1
Step 445000
Ar 3.739637e-01 0.000000e+00 0.000000e+00
1
Step 446000
Ar 9.156671e-01 0.000000e+00 0.000000e+00
1
Step 447000
Ar 8.444071e-01 0.000000e+00 0.000000e+00
1
Step 448000
Ar 8.672882e-01 0.000000e+00 0.000000e+00
1
Step 449000
Ar 8.751444e-01 0.000000e+00 0.000000e+00
1
Step 450000
Ar 9.679571e-01 0.000000e+00 0.000000e+00
1
Step 451000
Ar 9.353204e-01 0.000000e+00 0.000000e+00
1
Step 452000
Ar 1.040858e+00 0.000000e+00 0.000000e+00
1
Step 453000
Ar 1.140962e+00 0.000000e+00 0.000000e+00
1
Step 454000
Ar 1.056303e+00 0.000000e+00 0.000000e+00
1
Step 455000
Ar 1.013719e+00 0.000000e+00 0.000000e+00
1
Step 456000
Ar 1.284713e+00 0.000000e+00 0.000000e+00
1
Step 457000
Ar 1.356223e+00 0.000000e+00 0.000000e+00
1
Step 458000
Ar 1.287069e+00 0.000000e+00 0.000000e+00
1
Step 459000
Ar 1.279994e+00 0.000000e+00 0.000000e+00
1
Step 460000
Ar 1.193583e+00 0.000000e+00 0.000000e+00
1
Step 461000
Ar 1.240234e+00 0.000000e+00 0.000000e+00
1
Step 462000
Ar 1.254694e+00 0.000000e+00 0.000000e+00
1
Step 463000
Ar 1.260820e+00 0.000000e+00 0.000000e+00
1
Step 464000
Ar 1.214254e+00 0.000000e+00 0.000000e+00
1
Step 465000
Ar 7.548845e-01 0.000000e+00 0.000000e+00
1
Step 466000
Ar 7.945759e-01 0.000000e+00 0.000000e+00
1
Step 467000
Ar 7.898848e-01 0.000000e+00 0.000000e+00
1
Step 468000
Ar 8.454510e-01 0.000000e+00 0.000000e+00
1
Step 469000
Ar 8.338848e-01 0.000000e+00 0.000000e+00
1
Step 470000
Ar 8.203565e-01 0.000000e+00 0.000000e+00
1
Step 471000
Ar 8.767307e-01 0.000000e+00 0.000000e+00
1
Step 472000
Ar 9.699767e-01 0.000000e+00 0.000000e+00
1
Step 473000
Ar 9.241278e-01 0.000000e+00 0.000000e+00
1
Step 474000
Ar 9.887355e-01 0.000000e+00 0.000000e+00
1
Step 475000
Ar 9.807400e-01 0.000000e+00 0.000000e+00
1
Step 476000
Ar 9.281155e-01 0.000000e+00 0.000000e+00
1
Step 477000
Ar 9.637672e-01 0.000000e+00 0.000000e+00
1
Step 478000
Ar 9.342370e-01 0.000000e+00 0.000000e+00
1
Step 479000
Ar 9.155560e-01 0.000000e+00 0.000000e+00
1
Step 480000
Ar 1.038408e+00 0.000000e+00 0.000000e+00
1
Step 481000
Ar 1.092649e+00 0.000000e+00 0.000000e+00
1
Step 482000
Ar 1.038077e+00 0.000000e+00 0.000000e+00
1
Step 483000
Ar 1.409454e+00 0.000000e+00 0.000000e+00
1
Step 484000
Ar 7.459221e-01 0.000000e+00 0.000000e+00
1
Step 485000
Ar 5.220470e-01 0.000000e+00 0.000000e+00
1
Step 486000
Ar 5.549884e-01 0.000000e+00 0.000000e+00
1
Step 487000
Ar 5.519177e-01 0.000000e+00 0.000000e+00
1
Step 488000
Ar 5.847681e-01 0.000000e+00 0.000000e+00
1
Step 489000
Ar 6.215783e-01 0.000000e+00 0.000000e+00
1
Step 490000
Ar 6.552810e-01 0.000000e+00 0.000000e+00
1
Step 491000
Ar 5.901007e-01 0.000000e+00 0.000000e+00
1
Step 492000
Ar 6.760485e-01 0.000000e+00 0.000000e+00
1
Step 493000
Ar 6.715680e-01 0.000000e+00 0.000000e+00
1
Step 494000
Ar 6.767705e-01 0.000000e+00 0.000000e+00
1
Step 495000
Ar 7.924301e-01 0.000000e+00 0.000000e+00
1
Step 496000
Ar 7.987483e-01 0.000000e+00 0.000000e+00
1
Step 497000
Ar 8.210677e-01 0.000000e+00 0.000000e+00
1
Step 498000
Ar 6.281378e-01 0.000000e+00 0.000000e+00
1
Step 499000
Ar 5.403840e-01 0.000000e+00 0.000000e+00
1
Step 500000
Ar 6.746484e-01 0.000000e+00 0.000000e+00
1
Step 501000
Ar 6.625684e-01 0.000000e+00 0.000000e+00
1
Step 502000
Ar 7.632405e-01 0.000000e+00 0.000000e+00
1
Step 503000
Ar 8.764903e-01 0.000000e+00 0.000000e+00
1
Step 504000
Ar 9.494952e-01 0.000000e+00 0.000000e+00
1
Step 505000
Ar 9.512824e-01 0.000000e+00 0.000000e+00
1
Step 506000
Ar 9.955595e-01 0.000000e+00 0.000000e+00
1
Step 507000
Ar 9.464534e-01 0.000000e+00 0.000000e+00
1
Step 508000
Ar 1.055101e+00 0.000000e+00 0.000000e+00
1
Step 509000
Ar 9.527162e-01 0.000000e+00 0.000000e+00
1
Step 510000
Ar 7.834350e-01 0.000000e+00 0.000000e+00
1
Step 511000
Ar 7.338158e-01 0.000000e+00 0.000000e+00
1
Step 512000
Ar 7.160541e-01 0.000000e+00 0.000000e+00
1
Step 513000
Ar 7.169519e-01 0.000000e+00 0.000000e+00
1
Step 514000
Ar 9.809668e-01 0.000000e+00 0.000000e+00
1
Step 515000
Ar 9.902978e-01 0.000000e+00 0.000000e+00
1
Step 516000
Ar 1.040958e+00 0.000000e+00 0.000000e+00
1
Step 517000
Ar 1.091902e+00 0.000000e+00 0.000000e+00
1
Step 518000
Ar 1.077973e+00 0.000000e+00 0.000000e+00
1
Step 519000
Ar 1.150217e+00 0.000000e+00 0.000000e+00
1
Step 520000
Ar 1.156508e+00 0.000000e+00 0.000000e+00
1
Step 521000
Ar 1.158571e+00 0.000000e+00 0.000000e+00
1
Step 522000
Ar 1.155518e+00 0.000000e+00 0.000000e+00
1
Step 523000
Ar 1.173781e+00 0.000000e+00 0.000000e+00
1
Step 524000
Ar 1.125646e+00 0.000000e+00 0.000000e+00
1
Step 525000
Ar 1.121717e+00 0.000000e+00 0.000000e+00
1
Step 526000
Ar 1.127756e+00 0.000000e+00 0.000000e+00
1
Step 527000
Ar 1.092358e+00 0.000000e+00 0.000000e+00
1
Step 528000
Ar 1.087821e+00 0.000000e+00 0.000000e+00
1
Step 529000
Ar 1.075030e+00 0.000000e+00 0.000000e+00
1
Step 530000
Ar 1.322089e+00 0.000000e+00 0.000000e+00
1
Step 531000
Ar 1.295390e+00 0.000000e+00 0.000000e+00
1
Step 532000
Ar 1.325869e+00 0.000000e+00 0.000000e+00
1
Step 533000
Ar 1.285047e+00 0.000000e+00 0.000000e+00
1
Step 534000
Ar 1.211665e+00 0.000000e+00 0.000000e+00
1
Step 535000
Ar 1.213454e+00 0.000000e+00 0.000000e+00
1
Step 536000
Ar 1.318123e+00 0.000000e+00 0.000000e+00
1
Step 537000
Ar 1.320308e+00 0.000000e+00 0.000000e+00
1
Step 538000
Ar 1.323548e+00 0.000000e+00 0.000000e+00
1
Step 539000
Ar 1.233304e+00 0.000000e+00 0.000000e+00
1
Step 540000
Ar 1.348308e+00 0.000000e+00 0.000000e+00
1
Step 541000
Ar 1.235127e+00 0.000000e+00 0.000000e+00
1
Step 542000
Ar 1.197491e+00 0.000000e+00 0.000000e+00
1
Step 543000
Ar 1.273484e+00 0.000000e+00 0.000000e+00
1
Step 544000
Ar 1.409243e+00 0.000000e+00 0.000000e+00
1
Step 545000
Ar 1.343935e+00 0.000000e+00 0.000000e+00
1
Step 546000
Ar 1.340262e+00 0.000000e+00 0.000000e+00
1
Step 547000
Ar 1.479635e+00 0.000000e+00 0.000000e+00
1
Step 548000
Ar 1.448313e+00 0.000000e+00 0.000000e+00
1
Step 549000
Ar 1.449730e+00 0.000000e+00 0.000000e+00
1
Step 550000
Ar 1.442013e+00 0.000000e+00 0.000000e+00
1
Step 551000
Ar 1.515989e+00 0.000000e+00 0.000000e+00
1
Step 552000
Ar 1.454051e+00 0.000000e+00 0.000000e+00
1
Step 553000
Ar 1.503851e+00 0.000000e+00 0.000000e+00
1
Step 554000
Ar 1.480379e+00 0.000000e+00 0.000000e+00
1
Step 555000
Ar 1.458761e+00 0.000000e+00 0.000000e+00
1
Step 556000
Ar 1.496260e+00 0.000000e+00 0.000000e+00
1
Step 557000
Ar 1.474151e+00 0.000000e+00 0.000000e+00
1
Step 558000
Ar 1.478800e+00 0.000000e+00 0.000000e+00
1
Step 559000
Ar 1.471125e+00 0.000000e+00 0.000000e+00
1
Step 560000
Ar 9.598835e-01 0.000000e+00 0.000000e+00
1
Step 561000
Ar 1.040977e+00 0.000000e+00 0.000000e+00
1
Step 562000
Ar 9.829823e-01 0.000000e+00 0.000000e+00
1
Step 563000
Ar 9.621333e-01 0.000000e+00 0.000000e+00
1
Step 564000
Ar 1.099226e+00 0.000000e+00 0.000000e+00
1
Step 565000
Ar 1.284484e+00 0.000000e+00 0.000000e+00
1
Step 566000
Ar 1.280021e+00 0.000000e+00 0.000000e+00
1
Step 567000
Ar 1.286459e+00 0.000000e+00 0.000000e+00
1
Step 568000
Ar 1.038903e+00 0.000000e+00 0.000000e+00
1
Step 569000
Ar 1.056325e+00 0.000000e+00 0.000000e+00
1
Step 570000
Ar 1.076930e+00 0.000000e+00 0.000000e+00
1
Step 571000
Ar 6.058597e-01 0.000000e+00 0.000000e+00
1
Step 572000
Ar 5.620871e-01 0.000000e+00 0.000000e+00
1
Step 573000
Ar 8.159877e-01 0.000000e+00 0.000000e+00
1
Step 574000
Ar 8.983844e-01 0.000000e+00 0.000000e+00
1
Step 575000
Ar 8.865160e-01 0.000000e+00 0.000000e+00
1
Step 576000
Ar 8.634168e-01 0.000000e+00 0.000000e+00
1
Step 577000
Ar 8.654107e-01 0.000000e+00 0.000000e+00
1
Step 578000
Ar 8.636379e-01 0.000000e+00 0.000000e+00
1
Step 579000
Ar 8.519939e-01 0.000000e+00 0.000000e+00
1
Step 580000
Ar 8.560393e-01 0.000000e+00 0.000000e+00
1
Step 581000
Ar 8.538330e-01 0.000000e+00 0.000000e+00
1
Step 582000
Ar 8.080385e-01 0.000000e+00 0.000000e+00
1
Step 583000
Ar 7.936896e-01 0.000000e+00 0.000000e+00
1
Step 584000
Ar 8.132561e-01 0.000000e+00 0.000000e+00
1
Step 585000
Ar 8.189372e-01 0.000000e+00 0.000000e+00
1
Step 586000
Ar 9.533181e-01 0.000000e+00 0.000000e+00
1
Step 587000
Ar 1.013246e+00 0.000000e+00 0.000000e+00
1
Step 588000
Ar 1.013423e+00 0.000000e+00 0.000000e+00
1
Step 589000
Ar 1.015073e+00 0.000000e+00 0.000000e+00
1
Step 590000
Ar 1.045659e+00 0.000000e+00 0.000000e+00
1
Step 591000
Ar 1.232356e+00 0.000000e+00 0.000000e+00
1
Step 592000
Ar 1.230695e+00 0.000000e+00 0.000000e+00
1
Step 593000
Ar 1.103767e+00 0.000000e+00 0.000000e+00
1
Step 594000
Ar 1.157679e+00 0.000000e+00 0.000000e+00
1
Step 595000
Ar 1.152782e+00 0.000000e+00 0.000000e+00
1
Step 596000
Ar 1.160193e+00 0.000000e+00 0.000000e+00
1
Step 597000
Ar 1.171696e+00 0.000000e+00 0.000000e+00
1
Step 598000
Ar 1.174556e+00 0.000000e+00 0.000000e+00
1
Step 599000
Ar 1.151262e+00 0.000000e+00 0.000000e+00
1
Step 600000
Ar 1.155746e+00 0.000000e+00 0.000000e+00
1
Step 601000
Ar 1.173252e+00 0.000000e+00 0.000000e+00
1
Step 602000
Ar 1.170177e+00 0.000000e+00 0.000000e+00
1
Step 603000
Ar 1.159891e+00 0.000000e+00 0.000000e+00
1
Step 604000
Ar 1.128709e+00 0.000000e+00 0.000000e+00
1
Step 605000
Ar 1.214694e+00 0.000000e+00 0.000000e+00
1
Step 606000
Ar 1.224533e+00 0.000000e+00 0.000000e+00
1
Step 607000
Ar 1.134745e+00 0.000000e+00 0.000000e+00
1
Step 608000
Ar 1.129970e+00 0.000000e+00 0.000000e+00
1
Step 609000
Ar 1.222397e+00 0.000000e+00 0.000000e+00
1
Step 610000
Ar 1.228764e+00 0.000000e+00 0.000000e+00
1
Step 611000
Ar 1.334190e+00 0.000000e+00 0.000000e+00
1
Step 612000
Ar 1.370927e+00 0.000000e+00 0.000000e+00
1
Step 613000
Ar 1.380722e+00 0.000000e+00 0.000000e+00
1
Step 614000
Ar 1.397504e+00 0.000000e+00 0.000000e+00
1
Step 615000
Ar 1.398420e+00 0.000000e+00 0.000000e+00
1
Step 616000
Ar 1.374214e+00 0.000000e+00 0.000000e+00
1
Step 617000
Ar 1.361370e+00 0.000000e+00 0.000000e+00
1
Step 618000
Ar 1.381618e+00 0.000000e+00 0.000000e+00
1
Step 619000
Ar 1.391573e+00 0.000000e+00 0.000000e+00
1
Step 620000
Ar 1.325235e+00 0.000000e+00 0.000000e+00
1
Step 621000
Ar 6.799617e-01 0.000000e+00 0.000000e+00
1
Step 622000
Ar 6.790302e-01 0.000000e+00 0.000000e+00
1
Step 623000
Ar 8.332702e-01 0.000000e+00 0.000000e+00
1
Step 624000
Ar 8.010281e-01 0.000000e+00 0.000000e+00
1
Step 625000
Ar 8.783023e-01 0.000000e+00 0.000000e+00
1
Step 626000
Ar 9.800893e-01 0.000000e+00 0.000000e+00
1
Step 627000
Ar 8.685266e-01 0.000000e+00 0.000000e+00
1
Step 628000
Ar 8.104711e-01 0.000000e+00 0.000000e+00
1
Step 629000
Ar 6.069204e-01 0.000000e+00 0.000000e+00
1
Step 630000
Ar 5.570876e-01 0.000000e+00 0.000000e+00
1
Step 631000
Ar 5.239477e-01 0.000000e+00 0.000000e+00
1
Step 632000
Ar 5.262441e-01 0.000000e+00 0.000000e+00
1
Step 633000
Ar 5.234939e-01 0.000000e+00 0.000000e+00
1
Step 634000
Ar 5.256857e-01 0.000000e+00 0.000000e+00
1
Step 635000
Ar 5.272830e-01 0.000000e+00 0.000000e+00
1
Step 636000
Ar 5.549162e-01 0.000000e+00 0.000000e+00
1
Step 637000
Ar 4.880012e-01 0.000000e+00 0.000000e+00
1
Step 638000
Ar 4.865884e-01 0.000000e+00 0.000000e+00
1
Step 639000
Ar 5.102580e-01 0.000000e+00 0.000000e+00
1
Step 640000
Ar 6.027403e-01 0.000000e+00 0.000000e+00
1
Step 641000
Ar 5.533982e-01 0.000000e+00 0.000000e+00
1
Step 642000
Ar 6.112055e-01 0.000000e+00 0.000000e+00
1
Step 643000
Ar 4.138099e-01 0.000000e+00 0.000000e+00
1
Step 644000
Ar 4.517927e-01 0.000000e+00 0.000000e+00
1
Step 645000
Ar 4.015031e-01 0.000000e+00 0.000000e+00
1
Step 646000
Ar 4.197481e-01 0.000000e+00 0.000000e+00
1
Step 647000
Ar 4.508311e-01 0.000000e+00 0.000000e+00
1
Step 648000
Ar 4.270156e-01 0.000000e+00 0.000000e+00
1
Step 649000
Ar 4.321346e-01 0.000000e+00 0.000000e+00
1
Step 650000
Ar 4.345213e-01 0.000000e+00 0.000000e+00
1
Step 651000