1
Step 120000
Ar -5.537192e-03 0.000000e+00 0.000000e+00
1
Step 121000
Ar -2.144004e-02 0.000000e+00 0.000000e+00
1
Step 122000
Ar -2.208441e-02 0.000000e+00 0.000000e+00
1
Step 123000
Ar 7.574254e-03 0.000000e+00 0.000000e+00
1
Step 124000
Ar 3.186125e-02 0.000000e+00 0.000000e+00
1
Step 125000
Ar 4.621273e-02 0.000000e+00 0.000000e+00
1
Step 126000
Ar 3.463763e-02 0.000000e+00 0.000000e+00
1
Step 127000
Ar -4.424836e-02 0.000000e+00 0.000000e+00
1
Step 128000
Ar -2.867186e-02 0.000000e+00 0.000000e+00
1
Step 129000
Ar 9.305863e-02 0.000000e+00 0.000000e+00
1
Step 130000
Ar 2.891267e-02 0.000000e+00 0.000000e+00
1
Step 131000
Ar -1.517727e-03 0.000000e+00 0.000000e+00
1
Step 132000
Ar -3.666686e-02 0.000000e+00 0.000000e+00
1
Step 133000
Ar 5.203235e-02 0.000000e+00 0.000000e+00
1
Step 134000
Ar -5.834887e-02 0.000000e+00 0.000000e+00
1
Step 135000
Ar 3.554261e-02 0.000000e+00 0.000000e+00
1
Step 136000
Ar 3.411371e-02 0.000000e+00 0.000000e+00
1
Step 137000
Ar 4.578344e-02 0.000000e+00 0.000000e+00
1
Step 138000
Ar -4.260044e-03 0.000000e+00 0.000000e+00
1
Step 139000
Ar 2.704084e-02 0.000000e+00 0.000000e+00
1
Step 140000
Ar -6.228657e-02 0.000000e+00 0.000000e+00
1
Step 141000
Ar 2.056102e-02 0.000000e+00 0.000000e+00
1
Step 142000
Ar -1.998554e-02 0.000000e+00 0.000000e+00
1
Step 143000
Ar 7.220487e-02 0.000000e+00 0.000000e+00
1
Step 144000
Ar -4.439496e-04 0.000000e+00 0.000000e+00
1
Step 145000
Ar 9.683384e-03 0.000000e+00 0.000000e+00
1
Step 146000
Ar -3.783836e-02 0.000000e+00 0.000000e+00
1
Step 147000
Ar -4.773236e-02 0.000000e+00 0.000000e+00
1
Step 148000
Ar 5.599840e-03 0.000000e+00 0.000000e+00
1
Step 149000
Ar -1.862831e-02 0.000000e+00 0.000000e+00
1
Step 150000
Ar 6.329925e-03 0.000000e+00 0.000000e+00
1
Step 151000
Ar -1.343534e-02 0.000000e+00 0.000000e+00
1
Step 152000
Ar 5.459302e-02 0.000000e+00 0.000000e+00
1
Step 153000
Ar -9.979216e-03 0.000000e+00 0.000000e+00
1
Step 154000
Ar -1.817253e-02 0.000000e+00 0.000000e+00
1
Step 155000
Ar -5.600515e-02 0.000000e+00 0.000000e+00
1
Step 156000
Ar 7.565366e-02 0.000000e+00 0.000000e+00
1
Step 157000
Ar 1.724965e-03 0.000000e+00 0.000000e+00
1
Step 158000
Ar -5.440796e-02 0.000000e+00 0.000000e+00
1
Step 159000
Ar 3.756939e-02 0.000000e+00 0.000000e+00
1
Step 160000
Ar 1.362776e-03 0.000000e+00 0.000000e+00
1
Step 161000
Ar 5.324668e-03 0.000000e+00 0.000000e+00
1
Step 162000
Ar -2.163478e-02 0.000000e+00 0.000000e+00
1
Step 163000
Ar 7.254333e-02 0.000000e+00 0.000000e+00
1
Step 164000
Ar 1.452899e-02 0.000000e+00 0.000000e+00
1
Step 165000
Ar 1.947757e-02 0.000000e+00 0.000000e+00
1
Step 166000
Ar -2.677826e-02 0.000000e+00 0.000000e+00
1
Step 167000
Ar 4.879094e-02 0.000000e+00 0.000000e+00
1
Step 168000
Ar -4.966050e-02 0.000000e+00 0.000000e+00
1
Step 169000
Ar 2.773526e-02 0.000000e+00 0.000000e+00
1
Step 170000
Ar -4.764884e-02 0.000000e+00 0.000000e+00
1
Step 171000
Ar -4.257007e-03 0.000000e+00 0.000000e+00
1
Step 172000
Ar -2.041210e-02 0.000000e+00 0.000000e+00
1
Step 173000
Ar -1.537874e-02 0.000000e+00 0.000000e+00
1
Step 174000
Ar 1.563488e-02 0.000000e+00 0.000000e+00
1
Step 175000
Ar -3.089967e-02 0.000000e+00 0.000000e+00
1
Step 176000
Ar 3.654315e-02 0.000000e+00 0.000000e+00
1
Step 177000
Ar -4.843965e-03 0.000000e+00 0.000000e+00
1
Step 178000
Ar 4.551605e-02 0.000000e+00 0.000000e+00
1
Step 179000
Ar -3.495194e-02 0.000000e+00 0.000000e+00
1
Step 180000
Ar 1.756430e-02 0.000000e+00 0.000000e+00
1
Step 181000
Ar 8.323590e-03 0.000000e+00 0.000000e+00
1
Step 182000
Ar -4.581544e-02 0.000000e+00 0.000000e+00
1
Step 183000
Ar -1.297426e-02 0.000000e+00 0.000000e+00
1
Step 184000
Ar 4.612796e-02 0.000000e+00 0.000000e+00
1
Step 185000
Ar 1.052461e-02 0.000000e+00 0.000000e+00
1
Step 186000
Ar 8.041546e-02 0.000000e+00 0.000000e+00
1
Step 187000
Ar 4.928006e-03 0.000000e+00 0.000000e+00
1
Step 188000
Ar -7.627105e-03 0.000000e+00 0.000000e+00
1
Step 189000
Ar 1.071302e-02 0.000000e+00 0.000000e+00
1
Step 190000
Ar 6.085981e-03 0.000000e+00 0.000000e+00
1
Step 191000
Ar -4.076984e-03 0.000000e+00 0.000000e+00
1
Step 192000
Ar 2.486213e-02 0.000000e+00 0.000000e+00
1
Step 193000
Ar -1.857955e-03 0.000000e+00 0.000000e+00
1
Step 194000
Ar 6.655384e-02 0.000000e+00 0.000000e+00
1
Step 195000
Ar 6.441303e-02 0.000000e+00 0.000000e+00
1
Step 196000
Ar 1.644982e-02 0.000000e+00 0.000000e+00
1
Step 197000
Ar -1.700615e-02 0.000000e+00 0.000000e+00
1
Step 198000
Ar 6.433202e-03 0.000000e+00 0.000000e+00
1
Step 199000
Ar -2.359394e-02 0.000000e+00 0.000000e+00
1
Step 200000
Ar -4.775520e-02 0.000000e+00 0.000000e+00
1
Step 201000
Ar 5.146031e-02 0.000000e+00 0.000000e+00
1
Step 202000
Ar -1.078442e-02 0.000000e+00 0.000000e+00
1
Step 203000
Ar 3.461747e-02 0.000000e+00 0.000000e+00
1
Step 204000
Ar -3.379325e-03 0.000000e+00 0.000000e+00
1
Step 205000
Ar 2.203586e-02 0.000000e+00 0.000000e+00
1
Step 206000
Ar -2.333454e-02 0.000000e+00 0.000000e+00
1
Step 207000
Ar 5.574686e-02 0.000000e+00 0.000000e+00
1
Step 208000
Ar 2.018373e-02 0.000000e+00 0.000000e+00
1
Step 209000
Ar -1.776124e-02 0.000000e+00 0.000000e+00
1
Step 210000
Ar -2.955386e-02 0.000000e+00 0.000000e+00
1
Step 211000
Ar 6.982048e-02 0.000000e+00 0.000000e+00
1
Step 212000
Ar 4.547401e-02 0.000000e+00 0.000000e+00
1
Step 213000
Ar 5.303729e-03 0.000000e+00 0.000000e+00
1
Step 214000
Ar 3.333521e-02 0.000000e+00 0.000000e+00
1
Step 215000
Ar 3.863945e-02 0.000000e+00 0.000000e+00
1
Step 216000
Ar 2.301766e-02 0.000000e+00 0.000000e+00
1
Step 217000
Ar -4.531560e-02 0.000000e+00 0.000000e+00
1
Step 218000
Ar 2.194076e-02 0.000000e+00 0.000000e+00
1
Step 219000
Ar -2.929536e-02 0.000000e+00 0.000000e+00
1
Step 220000
Ar -3.323824e-02 0.000000e+00 0.000000e+00
1
Step 221000
Ar 5.068414e-02 0.000000e+00 0.000000e+00
1
Step 222000
Ar 8.674934e-02 0.000000e+00 0.000000e+00
1
Step 223000
Ar -5.270855e-02 0.000000e+00 0.000000e+00
1
Step 224000
Ar -4.087949e-02 0.000000e+00 0.000000e+00
1
Step 225000
Ar 3.468619e-02 0.000000e+00 0.000000e+00
1
Step 226000
Ar 1.371685e-02 0.000000e+00 0.000000e+00
1
Step 227000
Ar 5.668987e-03 0.000000e+00 0.000000e+00
1
Step 228000
Ar -4.579443e-03 0.000000e+00 0.000000e+00
1
Step 229000
Ar 1.188564e-02 0.000000e+00 0.000000e+00
1
Step 230000
Ar -3.888250e-02 0.000000e+00 0.000000e+00
1
Step 231000
Ar 2.786566e-02 0.000000e+00 0.000000e+00
1
Step 232000
Ar 2.445183e-02 0.000000e+00 0.000000e+00
1
Step 233000
Ar -2.148616e-02 0.000000e+00 0.000000e+00
1
Step 234000
Ar -1.704729e-02 0.000000e+00 0.000000e+00
1
Step 235000
Ar -4.064242e-02 0.000000e+00 0.000000e+00
1
Step 236000
Ar 4.308589e-02 0.000000e+00 0.000000e+00
1
Step 237000
Ar -7.640259e-02 0.000000e+00 0.000000e+00
1
Step 238000
Ar 2.129548e-02 0.000000e+00 0.000000e+00
1
Step 239000
Ar 1.391516e-02 0.000000e+00 0.000000e+00
1
Step 240000
Ar -2.327924e-02 0.000000e+00 0.000000e+00
1
Step 241000
Ar 1.457538e-02 0.000000e+00 0.000000e+00
1
Step 242000
Ar -3.364684e-03 0.000000e+00 0.000000e+00
1
Step 243000
Ar 2.588585e-03 0.000000e+00 0.000000e+00
1
Step 244000
Ar 2.778570e-02 0.000000e+00 0.000000e+00
1
Step 245000
Ar 1.980219e-02 0.000000e+00 0.000000e+00
1
Step 246000
Ar 4.259193e-02 0.000000e+00 0.000000e+00
1
Step 247000
Ar 1.719703e-02 0.000000e+00 0.000000e+00
1
Step 248000
Ar 4.041106e-02 0.000000e+00 0.000000e+00
1
Step 249000
Ar 1.259459e-02 0.000000e+00 0.000000e+00
1
Step 250000
Ar -2.487793e-02 0.000000e+00 0.000000e+00
1
Step 251000
Ar 5.639059e-02 0.000000e+00 0.000000e+00
1
Step 252000
Ar 8.357312e-03 0.000000e+00 0.000000e+00
1
Step 253000
Ar 1.528411e-02 0.000000e+00 0.000000e+00
1
Step 254000
Ar 4.351376e-02 0.000000e+00 0.000000e+00
1
Step 255000
Ar -3.543578e-03 0.000000e+00 0.000000e+00
1
Step 256000
Ar -1.662858e-02 0.000000e+00 0.000000e+00
1
Step 257000
Ar 9.508503e-03 0.000000e+00 0.000000e+00
1
Step 258000
Ar -1.132256e-03 0.000000e+00 0.000000e+00
1
Step 259000
Ar 4.405147e-04 0.000000e+00 0.000000e+00
1
Step 260000
Ar 1.458377e-02 0.000000e+00 0.000000e+00
1
Step 261000
Ar -1.411818e-02 0.000000e+00 0.000000e+00
1
Step 262000
Ar -2.153415e-02 0.000000e+00 0.000000e+00
1
Step 263000
Ar -1.450396e-02 0.000000e+00 0.000000e+00
1
Step 264000
Ar -9.947955e-03 0.000000e+00 0.000000e+00
1
Step 265000
Ar 2.756828e-03 0.000000e+00 0.000000e+00
1
Step 266000
Ar -5.928943e-02 0.000000e+00 0.000000e+00
1
Step 267000
Ar -1.234144e-03 0.000000e+00 0.000000e+00
1
Step 268000
Ar 5.104874e-02 0.000000e+00 0.000000e+00
1
Step 269000
Ar 3.836048e-02 0.000000e+00 0.000000e+00
1
Step 270000
Ar 4.146393e-03 0.000000e+00 0.000000e+00
1
Step 271000
Ar -2.825635e-03 0.000000e+00 0.000000e+00
1
Step 272000
Ar 2.170882e-02 0.000000e+00 0.000000e+00
1
Step 273000
Ar 4.475655e-02 0.000000e+00 0.000000e+00
1
Step 274000
Ar 1.299599e-02 0.000000e+00 0.000000e+00
1
Step 275000
Ar 1.021269e-02 0.000000e+00 0.000000e+00
1
Step 276000
Ar 1.505951e-02 0.000000e+00 0.000000e+00
1
Step 277000
Ar 8.020809e-02 0.000000e+00 0.000000e+00
1
Step 278000
Ar -1.353534e-02 0.000000e+00 0.000000e+00
1
Step 279000
Ar -4.706685e-02 0.000000e+00 0.000000e+00
1
Step 280000
Ar -2.063290e-02 0.000000e+00 0.000000e+00
1
Step 281000
Ar 2.645949e-02 0.000000e+00 0.000000e+00
1
Step 282000
Ar -1.228535e-04 0.000000e+00 0.000000e+00
1
Step 283000
Ar -3.790300e-03 0.000000e+00 0.000000e+00
1
Step 284000
Ar 1.219709e-02 0.000000e+00 0.000000e+00
1
Step 285000
Ar -1.495714e-02 0.000000e+00 0.000000e+00
1
Step 286000
Ar 2.190339e-03 0.000000e+00 0.000000e+00
1
Step 287000
Ar 1.371441e-02 0.000000e+00 0.000000e+00
1
Step 288000
Ar -4.662935e-03 0.000000e+00 0.000000e+00
1
Step 289000
Ar -5.382193e-02 0.000000e+00 0.000000e+00
1
Step 290000
Ar 1.157798e-04 0.000000e+00 0.000000e+00
1
Step 291000
Ar 3.567679e-02 0.000000e+00 0.000000e+00
1
Step 292000
Ar -3.749962e-02 0.000000e+00 0.000000e+00
1
Step 293000
Ar -2.102994e-02 0.000000e+00 0.000000e+00
1
Step 294000
Ar 1.975560e-02 0.000000e+00 0.000000e+00
1
Step 295000
Ar -1.265732e-02 0.000000e+00 0.000000e+00
1
Step 296000
Ar 6.313121e-03 0.000000e+00 0.000000e+00
1
Step 297000
Ar 2.583983e-02 0.000000e+00 0.000000e+00
1
Step 298000
Ar 9.366413e-03 0.000000e+00 0.000000e+00
1
Step 299000
Ar -4.008654e-02 0.000000e+00 0.000000e+00
1
Step 300000
Ar -2.875952e-02 0.000000e+00 0.000000e+00
1
Step 301000
Ar -5.197616e-02 0.000000e+00 0.000000e+00
1
Step 302000
Ar 5.714754e-02 0.000000e+00 0.000000e+00
1
Step 303000
Ar 8.704859e-03 0.000000e+00 0.000000e+00
1
Step 304000
Ar 3.247402e-02 0.000000e+00 0.000000e+00
1
Step 305000
Ar -5.167040e-03 0.000000e+00 0.000000e+00
1
Step 306000
Ar -8.335930e-03 0.000000e+00 0.000000e+00
1
Step 307000
Ar -3.959198e-02 0.000000e+00 0.000000e+00
1
Step 308000
Ar -3.036527e-02 0.000000e+00 0.000000e+00
1
Step 309000
Ar -6.413357e-03 0.000000e+00 0.000000e+00
1
Step 310000
Ar -3.268030e-02 0.000000e+00 0.000000e+00
1
Step 311000
Ar -1.019935e-02 0.000000e+00 0.000000e+00
1
Step 312000
Ar -5.264580e-02 0.000000e+00 0.000000e+00
1
Step 313000
Ar -1.214548e-02 0.000000e+00 0.000000e+00
1
Step 314000
Ar -1.746267e-02 0.000000e+00 0.000000e+00
1
Step 315000
Ar -5.682450e-02 0.000000e+00 0.000000e+00
1
Step 316000
Ar -1.187251e-02 0.000000e+00 0.000000e+00
1
Step 317000
Ar 6.995080e-03 0.000000e+00 0.000000e+00
1
Step 318000
Ar -5.280440e-03 0.000000e+00 0.000000e+00
1
Step 319000
Ar -9.683149e-03 0.000000e+00 0.000000e+00
1
Step 320000
Ar 2.147748e-02 0.000000e+00 0.000000e+00
1
Step 321000
Ar 2.273454e-02 0.000000e+00 0.000000e+00
1
Step 322000
Ar -8.178627e-03 0.000000e+00 0.000000e+00
1
Step 323000
Ar 1.152608e-02 0.000000e+00 0.000000e+00
1
Step 324000
Ar -2.436586e-02 0.000000e+00 0.000000e+00
1
Step 325000
Ar -1.713913e-02 0.000000e+00 0.000000e+00
1
Step 326000
Ar -3.576844e-02 0.000000e+00 0.000000e+00
1
Step 327000
Ar 7.245049e-02 0.000000e+00 0.000000e+00
1
Step 328000
Ar -4.740452e-02 0.000000e+00 0.000000e+00
1
Step 329000
Ar 4.439043e-02 0.000000e+00 0.000000e+00
1
Step 330000
Ar -1.320475e-02 0.000000e+00 0.000000e+00
1
Step 331000
Ar -4.674464e-03 0.000000e+00 0.000000e+00
1
Step 332000
Ar -1.886415e-02 0.000000e+00 0.000000e+00
1
Step 333000
Ar 8.009077e-03 0.000000e+00 0.000000e+00
1
Step 334000
Ar -3.792363e-03 0.000000e+00 0.000000e+00
1
Step 335000
Ar -5.827919e-02 0.000000e+00 0.000000e+00
1
Step 336000
Ar -3.137826e-02 0.000000e+00 0.000000e+00
1
Step 337000
Ar -4.447479e-02 0.000000e+00 0.000000e+00
1
Step 338000
Ar 1.324533e-02 0.000000e+00 0.000000e+00
1
Step 339000
Ar -2.155405e-02 0.000000e+00 0.000000e+00
1
Step 340000
Ar 1.368558e-02 0.000000e+00 0.000000e+00
1
Step 341000
Ar 2.966947e-02 0.000000e+00 0.000000e+00
1
Step 342000
Ar -1.662791e-02 0.000000e+00 0.000000e+00
1
Step 343000
Ar 3.352103e-03 0.000000e+00 0.000000e+00
1
Step 344000
Ar -6.855655e-03 0.000000e+00 0.000000e+00
1
Step 345000
Ar -7.836409e-03 0.000000e+00 0.000000e+00
1
Step 346000
Ar -2.644335e-02 0.000000e+00 0.000000e+00
1
Step 347000
Ar -3.488512e-02 0.000000e+00 0.000000e+00
1
Step 348000
Ar -1.658876e-02 0.000000e+00 0.000000e+00
1
Step 349000
Ar 1.235790e-02 0.000000e+00 0.000000e+00
1
Step 350000
Ar -4.431535e-02 0.000000e+00 0.000000e+00
1
Step 351000
Ar 1.453699e-02 0.000000e+00 0.000000e+00
1
Step 352000
Ar 1.733148e-03 0.000000e+00 0.000000e+00
1
Step 353000
Ar -4.324926e-02 0.000000e+00 0.000000e+00
1
Step 354000
Ar 6.270444e-03 0.000000e+00 0.000000e+00
1
Step 355000
Ar 8.672827e-03 0.000000e+00 0.000000e+00
1
Step 356000
Ar 1.362326e-03 0.000000e+00 0.000000e+00
1
Step 357000
Ar 1.220642e-02 0.000000e+00 0.000000e+00
1
Step 358000
Ar -6.698451e-03 0.000000e+00 0.000000e+00
1
Step 359000
Ar -4.597473e-02 0.000000e+00 0.000000e+00
1
Step 360000
Ar -2.284174e-02 0.000000e+00 0.000000e+00
1
Step 361000
Ar 2.206512e-02 0.000000e+00 0.000000e+00
1
Step 362000
Ar -4.464136e-02 0.000000e+00 0.000000e+00
1
Step 363000
Ar -3.501618e-02 0.000000e+00 0.000000e+00
1
Step 364000
Ar 5.554351e-02 0.000000e+00 0.000000e+00
1
Step 365000
Ar 2.204915e-02 0.000000e+00 0.000000e+00
1
Step 366000
Ar -4.048213e-02 0.000000e+00 0.000000e+00
1
Step 367000
Ar -7.574348e-03 0.000000e+00 0.000000e+00
1
Step 368000
Ar -2.294480e-02 0.000000e+00 0.000000e+00
1
Step 369000
Ar 3.303205e-02 0.000000e+00 0.000000e+00
1
Step 370000
Ar 3.065961e-02 0.000000e+00 0.000000e+00
1
Step 371000
Ar -6.235560e-03 0.000000e+00 0.000000e+00
1
Step 372000
Ar 4.528168e-02 0.000000e+00 0.000000e+00
1
Step 373000
Ar 3.960095e-02 0.000000e+00 0.000000e+00
1
Step 374000
Ar 1.623862e-02 0.000000e+00 0.000000e+00
1
Step 375000
Ar -3.064516e-02 0.000000e+00 0.000000e+00
1
Step 376000
Ar -1.273486e-02 0.000000e+00 0.000000e+00
1
Step 377000
Ar -4.266963e-02 0.000000e+00 0.000000e+00
1
Step 378000
Ar -5.183383e-02 0.000000e+00 0.000000e+00
1
Step 379000
Ar 6.071260e-02 0.000000e+00 0.000000e+00
1
Step 380000
Ar -2.407739e-02 0.000000e+00 0.000000e+00
1
Step 381000
Ar 2.948249e-02 0.000000e+00 0.000000e+00
1
Step 382000
Ar -4.868068e-03 0.000000e+00 0.000000e+00
1
Step 383000
Ar -5.234295e-03 0.000000e+00 0.000000e+00
1
Step 384000
Ar 1.017041e-02 0.000000e+00 0.000000e+00
1
Step 385000
Ar -7.438396e-03 0.000000e+00 0.000000e+00
1
Step 386000
Ar 4.018828e-02 0.000000e+00 0.000000e+00
1
Step 387000
Ar -2.934486e-02 0.000000e+00 0.000000e+00
1
Step 388000
Ar 2.079325e-02 0.000000e+00 0.000000e+00
1
Step 389000
Ar -4.188838e-03 0.000000e+00 0.000000e+00
1
Step 390000
Ar -1.247010e-02 0.000000e+00 0.000000e+00
1
Step 391000
Ar -5.164015e-02 0.000000e+00 0.000000e+00
1
Step 392000
Ar -1.825390e-02 0.000000e+00 0.000000e+00
1
Step 393000
Ar 3.932545e-05 0.000000e+00 0.000000e+00
1
Step 394000
Ar -2.109985e-04 0.000000e+00 0.000000e+00
1
Step 395000
Ar 4.011181e-02 0.000000e+00 0.000000e+00
1
Step 396000
Ar 3.559880e-03 0.000000e+00 0.000000e+00
1
Step 397000
Ar 5.613204e-02 0.000000e+00 0.000000e+00
1
Step 398000
Ar 9.956572e-03 0.000000e+00 0.000000e+00
1
Step 399000
Ar 2.523974e-02 0.000000e+00 0.000000e+00
1
Step 400000
Ar 8.102030e-02 0.000000e+00 0.000000e+00
1
Step 401000
Ar -4.206914e-03 0.000000e+00 0.000000e+00
1
Step 402000
Ar -3.422092e-02 0.000000e+00 0.000000e+00
1
Step 403000
Ar -6.768885e-03 0.000000e+00 0.000000e+00
1
Step 404000
Ar -4.321823e-02 0.000000e+00 0.000000e+00
1
Step 405000
Ar 1.028898e-01 0.000000e+00 0.000000e+00
1
Step 406000
Ar -2.121016e-02 0.000000e+00 0.000000e+00
1
Step 407000
Ar 2.064376e-02 0.000000e+00 0.000000e+00
1
Step 408000
Ar 7.820736e-02 0.000000e+00 0.000000e+00
1
Step 409000
Ar -1.155484e-02 0.000000e+00 0.000000e+00
1
Step 410000
Ar -7.002720e-03 0.000000e+00 0.000000e+00
1
Step 411000
Ar -1.728566e-02 0.000000e+00 0.000000e+00
1
Step 412000
Ar -5.772144e-03 0.000000e+00 0.000000e+00
1
Step 413000
Ar 1.118394e-02 0.000000e+00 0.000000e+00
1
Step 414000
Ar 6.133002e-03 0.000000e+00 0.000000e+00
1
Step 415000
Ar 2.733362e-03 0.000000e+00 0.000000e+00
1
Step 416000
Ar 2.182265e-02 0.000000e+00 0.000000e+00
1
Step 417000
Ar -1.897696e-02 0.000000e+00 0.000000e+00
1
Step 418000
Ar 3.194695e-03 0.000000e+00 0.000000e+00
1
Step 419000
Ar 2.006954e-03 0.000000e+00 0.000000e+00
1
Step 420000
Ar -1.978771e-02 0.000000e+00 0.000000e+00
1
Step 421000
Ar 2.028652e-02 0.000000e+00 0.000000e+00
1
Step 422000
Ar -1.379490e-02 0.000000e+00 0.000000e+00
1
Step 423000
Ar -3.812076e-02 0.000000e+00 0.000000e+00
1
Step 424000
Ar -1.154806e-02 0.000000e+00 0.000000e+00
1
Step 425000
Ar 6.616080e-03 0.000000e+00 0.000000e+00
1
Step 426000
Ar -2.068003e-02 0.000000e+00 0.000000e+00
1
Step 427000
Ar -3.635557e-04 0.000000e+00 0.000000e+00
1
Step 428000
Ar -2.061345e-03 0.000000e+00 0.000000e+00
1
Step 429000
Ar 5.863428e-03 0.000000e+00 0.000000e+00
1
Step 430000
Ar 1.709812e-02 0.000000e+00 0.000000e+00
1
Step 431000
Ar 3.529346e-03 0.000000e+00 0.000000e+00
1
Step 432000
Ar 3.412755e-02 0.000000e+00 0.000000e+00
1
Step 433000
Ar 2.675875e-02 0.000000e+00 0.000000e+00
1
Step 434000
Ar 2.141003e-02 0.000000e+00 0.000000e+00
1
Step 435000
Ar 3.978614e-02 0.000000e+00 0.000000e+00
1
Step 436000
Ar 1.527812e-02 0.000000e+00 0.000000e+00
1
Step 437000
Ar 8.559215e-02 0.000000e+00 0.000000e+00
1
Step 438000
Ar -1.341869e-02 0.000000e+00 0.000000e+00
1
Step 439000
Ar 2.923982e-03 0.000000e+00 0.000000e+00
1
Step 440000
Ar -4.961370e-02 0.000000e+00 0.000000e+00
1
Step 441000
Ar 6.315732e-02 0.000000e+00 0.000000e+00
1
Step 442000
Ar -2.873148e-02 0.000000e+00 0.000000e+00
1
Step 443000
Ar -2.310160e-03 0.000000e+00 0.000000e+00
1
Step 444000
Ar -9.445239e-03 0.000000e+00 0.000000e+00
1
Step 445000
Ar 1.046821e-02 0.000000e+00 0.000000e+00
1
Step 446000
Ar 1.119583e-02 0.000000e+00 0.000000e+00
1
Step 447000
Ar -4.545125e-02 0.000000e+00 0.000000e+00
1
Step 448000
Ar -3.209049e-02 0.000000e+00 0.000000e+00
1
Step 449000
Ar -6.956456e-03 0.000000e+00 0.000000e+00
1
Step 450000
Ar -1.025919e-02 0.000000e+00 0.000000e+00
1
Step 451000
Ar -4.785173e-03 0.000000e+00 0.000000e+00
1
Step 452000
Ar 7.573538e-02 0.000000e+00 0.000000e+00
1
Step 453000
Ar -2.362087e-02 0.000000e+00 0.000000e+00
1
Step 454000
Ar -1.407921e-02 0.000000e+00 0.000000e+00
1
Step 455000
Ar 1.402212e-02 0.000000e+00 0.000000e+00
1
Step 456000
Ar 2.014269e-02 0.000000e+00 0.000000e+00
1
Step 457000
Ar -2.680226e-03 0.000000e+00 0.000000e+00
1
Step 458000
Ar 2.946312e-02 0.000000e+00 0.000000e+00
1
Step 459000
Ar 2.511354e-02 0.000000e+00 0.000000e+00
1
Step 460000
Ar -3.748355e-02 0.000000e+00 0.000000e+00
1
Step 461000
Ar 7.774254e-04 0.000000e+00 0.000000e+00
1
Step 462000
Ar 1.821886e-02 0.000000e+00 0.000000e+00
1
Step 463000
Ar -3.028580e-03 0.000000e+00 0.000000e+00
1
Step 464000
Ar -2.292576e-02 0.000000e+00 0.000000e+00
1
Step 465000
Ar -2.973511e-02 0.000000e+00 0.000000e+00
1
Step 466000
Ar -3.964243e-02 0.000000e+00 0.000000e+00
1
Step 467000
Ar -1.819985e-02 0.000000e+00 0.000000e+00
1
Step 468000
Ar -4.956726e-03 0.000000e+00 0.000000e+00
1
Step 469000
Ar 1.930521e-02 0.000000e+00 0.000000e+00
1
Step 470000
Ar 9.283444e-03 0.000000e+00 0.000000e+00
1
Step 471000
Ar -4.895803e-03 0.000000e+00 0.000000e+00
1
Step 472000
Ar 1.288450e-03 0.000000e+00 0.000000e+00
1
Step 473000
Ar -3.522212e-02 0.000000e+00 0.000000e+00
1
Step 474000
Ar -3.802517e-02 0.000000e+00 0.000000e+00
1
Step 475000
Ar -2.233172e-02 0.000000e+00 0.000000e+00
1
Step 476000
Ar 3.629470e-02 0.000000e+00 0.000000e+00
1
Step 477000
Ar 6.278560e-04 0.000000e+00 0.000000e+00
1
Step 478000
Ar -1.534874e-02 0.000000e+00 0.000000e+00
1
Step 479000
Ar 4.457278e-03 0.000000e+00 0.000000e+00
1
Step 480000
Ar 2.365287e-02 0.000000e+00 0.000000e+00
1
Step 481000
Ar -5.257527e-03 0.000000e+00 0.000000e+00
1
Step 482000
Ar 5.945558e-03 0.000000e+00 0.000000e+00
1
Step 483000
Ar -1.221708e-02 0.000000e+00 0.000000e+00
1
Step 484000
Ar 3.879687e-02 0.000000e+00 0.000000e+00
1
Step 485000
Ar 3.145798e-02 0.000000e+00 0.000000e+00
1
Step 486000
Ar 1.974064e-02 0.000000e+00 0.000000e+00
1
Step 487000
Ar -5.841387e-02 0.000000e+00 0.000000e+00
1
Step 488000
Ar 4.848080e-02 0.000000e+00 0.000000e+00
1
Step 489000
Ar 7.288707e-02 0.000000e+00 0.000000e+00
1
Step 490000
Ar -3.281421e-02 0.000000e+00 0.000000e+00
1
Step 491000
Ar 2.223810e-02 0.000000e+00 0.000000e+00
1
Step 492000
Ar 4.441655e-02 0.000000e+00 0.000000e+00
1
Step 493000
Ar -1.141597e-02 0.000000e+00 0.000000e+00
1
Step 494000
Ar 1.456454e-02 0.000000e+00 0.000000e+00
1
Step 495000
Ar 5.211993e-02 0.000000e+00 0.000000e+00
1
Step 496000
Ar -2.939199e-02 0.000000e+00 0.000000e+00
1
Step 497000
Ar 2.034993e-02 0.000000e+00 0.000000e+00
1
Step 498000
Ar 2.409870e-02 0.000000e+00 0.000000e+00
1
Step 499000
Ar -5.080803e-02 0.000000e+00 0.000000e+00
