1
Step 120000
Ar 9.484382e-01 0.000000e+00 0.000000e+00
1
Step 121000
Ar 9.193525e-01 0.000000e+00 0.000000e+00
1
Step 122000
Ar 8.154188e-01 0.000000e+00 0.000000e+00
1
Step 123000
Ar 7.544850e-01 0.000000e+00 0.000000e+00
1
Step 124000
Ar 7.445760e-01 0.000000e+00 0.000000e+00
1
Step 125000
Ar 7.369478e-01 0.000000e+00 0.000000e+00
1
Step 126000
Ar 7.997308e-01 0.000000e+00 0.000000e+00
1
Step 127000
Ar 7.789801e-01 0.000000e+00 0.000000e+00
1
Step 128000
Ar 8.905524e-01 0.000000e+00 0.000000e+00
1
Step 129000
Ar 8.662059e-01 0.000000e+00 0.000000e+00
1
Step 130000
Ar 8.776389e-01 0.000000e+00 0.000000e+00
1
Step 131000
Ar 1.125645e+00 0.000000e+00 0.000000e+00
1
Step 132000
Ar 1.137643e+00 0.000000e+00 0.000000e+00
1
Step 133000
Ar 1.219351e+00 0.000000e+00 0.000000e+00
1
Step 134000
Ar 1.306010e+00 0.000000e+00 0.000000e+00
1
Step 135000
Ar 1.347409e+00 0.000000e+00 0.000000e+00
1
Step 136000
Ar 1.322604e+00 0.000000e+00 0.000000e+00
1
Step 137000
Ar 1.419287e+00 0.000000e+00 0.000000e+00
1
Step 138000
Ar 1.403006e+00 0.000000e+00 0.000000e+00
1
Step 139000
Ar 1.425924e+00 0.000000e+00 0.000000e+00
1
Step 140000
Ar 1.390258e+00 0.000000e+00 0.000000e+00
1
Step 141000
Ar 1.391568e+00 0.000000e+00 0.000000e+00
1
Step 142000
Ar 1.402320e+00 0.000000e+00 0.000000e+00
1
Step 143000
Ar 1.449271e+00 0.000000e+00 0.000000e+00
1
Step 144000
Ar 1.453779e+00 0.000000e+00 0.000000e+00
1
Step 145000
Ar 1.392904e+00 0.000000e+00 0.000000e+00
1
Step 146000
Ar 1.007581e+00 0.000000e+00 0.000000e+00
1
Step 147000
Ar 9.506585e-01 0.000000e+00 0.000000e+00
1
Step 148000
Ar 9.301175e-01 0.000000e+00 0.000000e+00
1
Step 149000
Ar 9.533169e-01 0.000000e+00 0.000000e+00
1
Step 150000
Ar 9.389331e-01 0.000000e+00 0.000000e+00
1
Step 151000
Ar 9.892219e-01 0.000000e+00 0.000000e+00
1
Step 152000
Ar 9.414107e-01 0.000000e+00 0.000000e+00
1
Step 153000
Ar 9.483646e-01 0.000000e+00 0.000000e+00
1
Step 154000
Ar 8.593493e-01 0.000000e+00 0.000000e+00
1
Step 155000
Ar 9.012013e-01 0.000000e+00 0.000000e+00
1
Step 156000
Ar 8.741920e-01 0.000000e+00 0.000000e+00
1
Step 157000
Ar 8.789889e-01 0.000000e+00 0.000000e+00
1
Step 158000
Ar 8.411203e-01 0.000000e+00 0.000000e+00
1
Step 159000
Ar 7.860296e-01 0.000000e+00 0.000000e+00
1
Step 160000
Ar 7.765657e-01 0.000000e+00 0.000000e+00
1
Step 161000
Ar 7.898989e-01 0.000000e+00 0.000000e+00
1
Step 162000
Ar 7.799705e-01 0.000000e+00 0.000000e+00
1
Step 163000
Ar 8.406160e-01 0.000000e+00 0.000000e+00
1
Step 164000
Ar 8.630640e-01 0.000000e+00 0.000000e+00
1
Step 165000
Ar 1.088204e+00 0.000000e+00 0.000000e+00
1
Step 166000
Ar 1.060652e+00 0.000000e+00 0.000000e+00
1
Step 167000
Ar 1.013340e+00 0.000000e+00 0.000000e+00
1
Step 168000
Ar 9.763963e-01 0.000000e+00 0.000000e+00
1
Step 169000
Ar 9.704009e-01 0.000000e+00 0.000000e+00
1
Step 170000
Ar 9.647708e-01 0.000000e+00 0.000000e+00
1
Step 171000
Ar 9.750494e-01 0.000000e+00 0.000000e+00
1
Step 172000
Ar 9.770894e-01 0.000000e+00 0.000000e+00
1
Step 173000
Ar 9.823056e-01 0.000000e+00 0.000000e+00
1
Step 174000
Ar 9.583400e-01 0.000000e+00 0.000000e+00
1
Step 175000
Ar 8.580439e-01 0.000000e+00 0.000000e+00
1
Step 176000
Ar 8.918065e-01 0.000000e+00 0.000000e+00
1
Step 177000
Ar 1.284828e+00 0.000000e+00 0.000000e+00
1
Step 178000
Ar 1.164598e+00 0.000000e+00 0.000000e+00
1
Step 179000
Ar 1.163563e+00 0.000000e+00 0.000000e+00
1
Step 180000
Ar 1.197344e+00 0.000000e+00 0.000000e+00
1
Step 181000
Ar 1.136293e+00 0.000000e+00 0.000000e+00
1
Step 182000
Ar 1.198844e+00 0.000000e+00 0.000000e+00
1
Step 183000
Ar 1.157364e+00 0.000000e+00 0.000000e+00
1
Step 184000
Ar 1.188542e+00 0.000000e+00 0.000000e+00
1
Step 185000
Ar 1.144495e+00 0.000000e+00 0.000000e+00
1
Step 186000
Ar 1.159009e+00 0.000000e+00 0.000000e+00
1
Step 187000
Ar 1.258529e+00 0.000000e+00 0.000000e+00
1
Step 188000
Ar 1.041785e+00 0.000000e+00 0.000000e+00
1
Step 189000
Ar 1.141867e+00 0.000000e+00 0.000000e+00
1
Step 190000
Ar 1.161134e+00 0.000000e+00 0.000000e+00
1
Step 191000
Ar 1.091162e+00 0.000000e+00 0.000000e+00
1
Step 192000
Ar 1.093465e+00 0.000000e+00 0.000000e+00
1
Step 193000
Ar 1.092388e+00 0.000000e+00 0.000000e+00
1
Step 194000
Ar 1.208781e+00 0.000000e+00 0.000000e+00
1
Step 195000
Ar 1.204753e+00 0.000000e+00 0.000000e+00
1
Step 196000
Ar 1.196375e+00 0.000000e+00 0.000000e+00
1
Step 197000
Ar 1.190878e+00 0.000000e+00 0.000000e+00
1
Step 198000
Ar 1.195756e+00 0.000000e+00 0.000000e+00
1
Step 199000
Ar 1.199686e+00 0.000000e+00 0.000000e+00
1
Step 200000
Ar 1.017932e+00 0.000000e+00 0.000000e+00
1
Step 201000
Ar 1.018628e+00 0.000000e+00 0.000000e+00
1
Step 202000
Ar 1.038732e+00 0.000000e+00 0.000000e+00
1
Step 203000
Ar 1.041962e+00 0.000000e+00 0.000000e+00
1
Step 204000
Ar 1.241882e+00 0.000000e+00 0.000000e+00
1
Step 205000
Ar 1.272578e+00 0.000000e+00 0.000000e+00
1
Step 206000
Ar 1.274153e+00 0.000000e+00 0.000000e+00
1
Step 207000
Ar 1.274320e+00 0.000000e+00 0.000000e+00
1
Step 208000
Ar 1.340127e+00 0.000000e+00 0.000000e+00
1
Step 209000
Ar 1.271720e+00 0.000000e+00 0.000000e+00
1
Step 210000
Ar 1.269938e+00 0.000000e+00 0.000000e+00
1
Step 211000
Ar 1.270615e+00 0.000000e+00 0.000000e+00
1
Step 212000
Ar 1.175906e+00 0.000000e+00 0.000000e+00
1
Step 213000
Ar 1.147379e+00 0.000000e+00 0.000000e+00
1
Step 214000
Ar 1.135409e+00 0.000000e+00 0.000000e+00
1
Step 215000
Ar 1.110548e+00 0.000000e+00 0.000000e+00
1
Step 216000
Ar 1.067901e+00 0.000000e+00 0.000000e+00
1
Step 217000
Ar 1.037041e+00 0.000000e+00 0.000000e+00
1
Step 218000
Ar 1.068195e+00 0.000000e+00 0.000000e+00
1
Step 219000
Ar 1.053615e+00 0.000000e+00 0.000000e+00
1
Step 220000
Ar 1.209961e+00 0.000000e+00 0.000000e+00
1
Step 221000
Ar 1.198956e+00 0.000000e+00 0.000000e+00
1
Step 222000
Ar 1.185470e+00 0.000000e+00 0.000000e+00
1
Step 223000
Ar 1.177657e+00 0.000000e+00 0.000000e+00
1
Step 224000
Ar 1.211656e+00 0.000000e+00 0.000000e+00
1
Step 225000
Ar 1.268645e+00 0.000000e+00 0.000000e+00
1
Step 226000
Ar 1.271376e+00 0.000000e+00 0.000000e+00
1
Step 227000
Ar 1.305031e+00 0.000000e+00 0.000000e+00
1
Step 228000
Ar 1.265634e+00 0.000000e+00 0.000000e+00
1
Step 229000
Ar 1.266211e+00 0.000000e+00 0.000000e+00
1
Step 230000
Ar 1.265395e+00 0.000000e+00 0.000000e+00
1
Step 231000
Ar 1.180539e+00 0.000000e+00 0.000000e+00
1
Step 232000
Ar 1.195577e+00 0.000000e+00 0.000000e+00
1
Step 233000
Ar 1.207146e+00 0.000000e+00 0.000000e+00
1
Step 234000
Ar 1.327005e+00 0.000000e+00 0.000000e+00
1
Step 235000
Ar 1.151625e+00 0.000000e+00 0.000000e+00
1
Step 236000
Ar 1.088168e+00 0.000000e+00 0.000000e+00
1
Step 237000
Ar 1.094089e+00 0.000000e+00 0.000000e+00
1
Step 238000
Ar 1.086730e+00 0.000000e+00 0.000000e+00
1
Step 239000
Ar 1.167047e+00 0.000000e+00 0.000000e+00
1
Step 240000
Ar 1.200287e+00 0.000000e+00 0.000000e+00
1
Step 241000
Ar 1.062045e+00 0.000000e+00 0.000000e+00
1
Step 242000
Ar 1.061585e+00 0.000000e+00 0.000000e+00
1
Step 243000
Ar 1.172295e+00 0.000000e+00 0.000000e+00
1
Step 244000
Ar 9.579529e-01 0.000000e+00 0.000000e+00
1
Step 245000
Ar 9.255306e-01 0.000000e+00 0.000000e+00
1
Step 246000
Ar 9.865085e-01 0.000000e+00 0.000000e+00
1
Step 247000
Ar 9.872230e-01 0.000000e+00 0.000000e+00
1
Step 248000
Ar 9.949461e-01 0.000000e+00 0.000000e+00
1
Step 249000
Ar 9.919791e-01 0.000000e+00 0.000000e+00
1
Step 250000
Ar 1.118410e+00 0.000000e+00 0.000000e+00
1
Step 251000
Ar 1.123390e+00 0.000000e+00 0.000000e+00
1
Step 252000
Ar 1.122093e+00 0.000000e+00 0.000000e+00
1
Step 253000
Ar 1.120884e+00 0.000000e+00 0.000000e+00
1
Step 254000
Ar 1.145804e+00 0.000000e+00 0.000000e+00
1
Step 255000
Ar 1.148811e+00 0.000000e+00 0.000000e+00
1
Step 256000
Ar 1.160195e+00 0.000000e+00 0.000000e+00
1
Step 257000
Ar 1.136138e+00 0.000000e+00 0.000000e+00
1
Step 258000
Ar 6.921962e-01 0.000000e+00 0.000000e+00
1
Step 259000
Ar 6.700558e-01 0.000000e+00 0.000000e+00
1
Step 260000
Ar 6.607800e-01 0.000000e+00 0.000000e+00
1
Step 261000
Ar 6.526328e-01 0.000000e+00 0.000000e+00
1
Step 262000
Ar 6.515732e-01 0.000000e+00 0.000000e+00
1
Step 263000
Ar 6.798305e-01 0.000000e+00 0.000000e+00
1
Step 264000
Ar 4.795159e-01 0.000000e+00 0.000000e+00
1
Step 265000
Ar 6.943295e-01 0.000000e+00 0.000000e+00
1
Step 266000
Ar 7.044189e-01 0.000000e+00 0.000000e+00
1
Step 267000
Ar 1.528763e-01 0.000000e+00 0.000000e+00
1
Step 268000
Ar 1.175181e-01 0.000000e+00 0.000000e+00
1
Step 269000
Ar 2.137941e-01 0.000000e+00 0.000000e+00
1
Step 270000
Ar -1.025138e+00 0.000000e+00 0.000000e+00
1
Step 271000
Ar -8.259472e-01 0.000000e+00 0.000000e+00
1
Step 272000
Ar -8.423505e-01 0.000000e+00 0.000000e+00
1
Step 273000
Ar -1.044867e+00 0.000000e+00 0.000000e+00
1
Step 274000
Ar -9.795523e-01 0.000000e+00 0.000000e+00
1
Step 275000
Ar -9.307180e-01 0.000000e+00 0.000000e+00
1
Step 276000
Ar -9.303898e-01 0.000000e+00 0.000000e+00
1
Step 277000
Ar -9.200779e-01 0.000000e+00 0.000000e+00
1
Step 278000
Ar -1.065204e+00 0.000000e+00 0.000000e+00
1
Step 279000
Ar -1.267173e+00 0.000000e+00 0.000000e+00
1
Step 280000
Ar -1.008840e+00 0.000000e+00 0.000000e+00
1
Step 281000
Ar -9.529314e-01 0.000000e+00 0.000000e+00
1
Step 282000
Ar -1.001031e+00 0.000000e+00 0.000000e+00
1
Step 283000
Ar -9.862146e-01 0.000000e+00 0.000000e+00
1
Step 284000
Ar -7.651016e-01 0.000000e+00 0.000000e+00
1
Step 285000
Ar -8.728519e-01 0.000000e+00 0.000000e+00
1
Step 286000
Ar -8.585559e-01 0.000000e+00 0.000000e+00
1
Step 287000
Ar -9.959623e-01 0.000000e+00 0.000000e+00
1
Step 288000
Ar -1.006027e+00 0.000000e+00 0.000000e+00
1
Step 289000
Ar -9.970462e-01 0.000000e+00 0.000000e+00
1
Step 290000
Ar -1.000963e+00 0.000000e+00 0.000000e+00
1
Step 291000
Ar -9.286372e-01 0.000000e+00 0.000000e+00
1
Step 292000
Ar -1.094427e+00 0.000000e+00 0.000000e+00
1
Step 293000
Ar -1.131182e+00 0.000000e+00 0.000000e+00
1
Step 294000
Ar -1.103615e+00 0.000000e+00 0.000000e+00
1
Step 295000
Ar -1.109249e+00 0.000000e+00 0.000000e+00
1
Step 296000
Ar -8.770385e-01 0.000000e+00 0.000000e+00
1
Step 297000
Ar -1.218140e+00 0.000000e+00 0.000000e+00
1
Step 298000
Ar -1.219997e+00 0.000000e+00 0.000000e+00
1
Step 299000
Ar -1.211579e+00 0.000000e+00 0.000000e+00
1
Step 300000
Ar -1.362361e+00 0.000000e+00 0.000000e+00
1
Step 301000
Ar -1.197489e+00 0.000000e+00 0.000000e+00
1
Step 302000
Ar -1.266384e+00 0.000000e+00 0.000000e+00
1
Step 303000
Ar -1.243718e+00 0.000000e+00 0.000000e+00
1
Step 304000
Ar -1.235403e+00 0.000000e+00 0.000000e+00
1
Step 305000
Ar -9.552864e-01 0.000000e+00 0.000000e+00
1
Step 306000
Ar -8.503595e-01 0.000000e+00 0.000000e+00
1
Step 307000
Ar -9.189441e-01 0.000000e+00 0.000000e+00
1
Step 308000
Ar -8.710081e-01 0.000000e+00 0.000000e+00
1
Step 309000
Ar -8.598876e-01 0.000000e+00 0.000000e+00
1
Step 310000
Ar -8.566656e-01 0.000000e+00 0.000000e+00
1
Step 311000
Ar -9.722751e-01 0.000000e+00 0.000000e+00
1
Step 312000
Ar -9.357854e-01 0.000000e+00 0.000000e+00
1
Step 313000
Ar -9.121281e-01 0.000000e+00 0.000000e+00
1
Step 314000
Ar -9.515391e-01 0.000000e+00 0.000000e+00
1
Step 315000
Ar -8.741092e-01 0.000000e+00 0.000000e+00
1
Step 316000
Ar -7.261803e-01 0.000000e+00 0.000000e+00
1
Step 317000
Ar -7.557806e-01 0.000000e+00 0.000000e+00
1
Step 318000
Ar -7.923228e-01 0.000000e+00 0.000000e+00
1
Step 319000
Ar -7.828845e-01 0.000000e+00 0.000000e+00
1
Step 320000
Ar -7.907056e-01 0.000000e+00 0.000000e+00
1
Step 321000
Ar -6.225580e-01 0.000000e+00 0.000000e+00
1
Step 322000
Ar -6.340875e-01 0.000000e+00 0.000000e+00
1
Step 323000
Ar -6.819776e-01 0.000000e+00 0.000000e+00
1
Step 324000
Ar -6.597371e-01 0.000000e+00 0.000000e+00
1
Step 325000
Ar -6.579910e-01 0.000000e+00 0.000000e+00
1
Step 326000
Ar -5.724663e-01 0.000000e+00 0.000000e+00
1
Step 327000
Ar -5.671261e-01 0.000000e+00 0.000000e+00
1
Step 328000
Ar -4.244350e-01 0.000000e+00 0.000000e+00
1
Step 329000
Ar -2.258280e-01 0.000000e+00 0.000000e+00
1
Step 330000
Ar -7.237994e-01 0.000000e+00 0.000000e+00
1
Step 331000
Ar -6.860647e-01 0.000000e+00 0.000000e+00
1
Step 332000
Ar -4.919774e-01 0.000000e+00 0.000000e+00
1
Step 333000
Ar -5.455157e-01 0.000000e+00 0.000000e+00
1
Step 334000
Ar -6.889361e-01 0.000000e+00 0.000000e+00
1
Step 335000
Ar -1.042184e+00 0.000000e+00 0.000000e+00
1
Step 336000
Ar -9.987478e-01 0.000000e+00 0.000000e+00
1
Step 337000
Ar -1.128782e+00 0.000000e+00 0.000000e+00
1
Step 338000
Ar -1.016966e+00 0.000000e+00 0.000000e+00
1
Step 339000
Ar -1.082008e+00 0.000000e+00 0.000000e+00
1
Step 340000
Ar -1.048175e+00 0.000000e+00 0.000000e+00
1
Step 341000
Ar -1.025975e+00 0.000000e+00 0.000000e+00
1
Step 342000
Ar -1.176489e+00 0.000000e+00 0.000000e+00
1
Step 343000
Ar -1.202935e+00 0.000000e+00 0.000000e+00
1
Step 344000
Ar -1.097454e+00 0.000000e+00 0.000000e+00
1
Step 345000
Ar -1.067585e+00 0.000000e+00 0.000000e+00
1
Step 346000
Ar -1.039917e+00 0.000000e+00 0.000000e+00
1
Step 347000
Ar -1.167578e+00 0.000000e+00 0.000000e+00
1
Step 348000
Ar -1.182731e+00 0.000000e+00 0.000000e+00
1
Step 349000
Ar -1.060418e+00 0.000000e+00 0.000000e+00
1
Step 350000
Ar -1.044047e+00 0.000000e+00 0.000000e+00
1
Step 351000
Ar -8.929235e-01 0.000000e+00 0.000000e+00
1
Step 352000
Ar -8.476696e-01 0.000000e+00 0.000000e+00
1
Step 353000
Ar -8.580446e-01 0.000000e+00 0.000000e+00
1
Step 354000
Ar -8.217916e-01 0.000000e+00 0.000000e+00
1
Step 355000
Ar -9.051131e-01 0.000000e+00 0.000000e+00
1
Step 356000
Ar -8.508427e-01 0.000000e+00 0.000000e+00
1
Step 357000
Ar -1.001711e+00 0.000000e+00 0.000000e+00
1
Step 358000
Ar -9.943329e-01 0.000000e+00 0.000000e+00
1
Step 359000
Ar -1.001910e+00 0.000000e+00 0.000000e+00
1
Step 360000
Ar -1.027174e+00 0.000000e+00 0.000000e+00
1
Step 361000
Ar -8.860528e-01 0.000000e+00 0.000000e+00
1
Step 362000
Ar -7.086034e-01 0.000000e+00 0.000000e+00
1
Step 363000
Ar -7.877650e-01 0.000000e+00 0.000000e+00
1
Step 364000
Ar -6.587452e-01 0.000000e+00 0.000000e+00
1
Step 365000
Ar -7.639736e-01 0.000000e+00 0.000000e+00
1
Step 366000
Ar -9.002742e-01 0.000000e+00 0.000000e+00
1
Step 367000
Ar -9.531136e-01 0.000000e+00 0.000000e+00
1
Step 368000
Ar -9.345037e-01 0.000000e+00 0.000000e+00
1
Step 369000
Ar -9.356337e-01 0.000000e+00 0.000000e+00
1
Step 370000
Ar -1.049952e+00 0.000000e+00 0.000000e+00
1
Step 371000
Ar -1.041529e+00 0.000000e+00 0.000000e+00
1
Step 372000
Ar -1.117031e+00 0.000000e+00 0.000000e+00
1
Step 373000
Ar -1.123574e+00 0.000000e+00 0.000000e+00
1
Step 374000
Ar -1.069738e+00 0.000000e+00 0.000000e+00
1
Step 375000
Ar -1.269681e+00 0.000000e+00 0.000000e+00
1
Step 376000
Ar -1.245903e+00 0.000000e+00 0.000000e+00
1
Step 377000
Ar -1.279735e+00 0.000000e+00 0.000000e+00
1
Step 378000
Ar -1.282810e+00 0.000000e+00 0.000000e+00
1
Step 379000
Ar -1.330454e+00 0.000000e+00 0.000000e+00
1
Step 380000
Ar -1.299106e+00 0.000000e+00 0.000000e+00
1
Step 381000
Ar -1.465301e+00 0.000000e+00 0.000000e+00
1
Step 382000
Ar -1.379350e+00 0.000000e+00 0.000000e+00
1
Step 383000
Ar -1.335241e+00 0.000000e+00 0.000000e+00
1
Step 384000
Ar -1.440476e+00 0.000000e+00 0.000000e+00
1
Step 385000
Ar -1.458520e+00 0.000000e+00 0.000000e+00
1
Step 386000
Ar -1.497355e+00 0.000000e+00 0.000000e+00
1
Step 387000
Ar -9.513588e-01 0.000000e+00 0.000000e+00
1
Step 388000
Ar -9.717586e-01 0.000000e+00 0.000000e+00
1
Step 389000
Ar -9.337225e-01 0.000000e+00 0.000000e+00
1
Step 390000
Ar -9.614600e-01 0.000000e+00 0.000000e+00
1
Step 391000
Ar -9.774765e-01 0.000000e+00 0.000000e+00
1
Step 392000
Ar -1.051351e+00 0.000000e+00 0.000000e+00
1
Step 393000
Ar -1.011104e+00 0.000000e+00 0.000000e+00
1
Step 394000
Ar -1.024473e+00 0.000000e+00 0.000000e+00
1
Step 395000
Ar -1.150112e+00 0.000000e+00 0.000000e+00
1
Step 396000
Ar -1.198221e+00 0.000000e+00 0.000000e+00
1
Step 397000
Ar -1.186083e+00 0.000000e+00 0.000000e+00
1
Step 398000
Ar -1.227943e+00 0.000000e+00 0.000000e+00
1
Step 399000
Ar -1.341745e+00 0.000000e+00 0.000000e+00
1
Step 400000
Ar -1.341625e+00 0.000000e+00 0.000000e+00
1
Step 401000
Ar -1.295533e+00 0.000000e+00 0.000000e+00
1
Step 402000
Ar -1.284948e+00 0.000000e+00 0.000000e+00
1
Step 403000
Ar -9.403860e-01 0.000000e+00 0.000000e+00
1
Step 404000
Ar -8.884163e-01 0.000000e+00 0.000000e+00
1
Step 405000
Ar -7.349762e-01 0.000000e+00 0.000000e+00
1
Step 406000
Ar -7.353995e-01 0.000000e+00 0.000000e+00
1
Step 407000
Ar -9.235964e-01 0.000000e+00 0.000000e+00
1
Step 408000
Ar -9.669566e-01 0.000000e+00 0.000000e+00
1
Step 409000
Ar -9.167267e-01 0.000000e+00 0.000000e+00
1
Step 410000
Ar -1.167019e+00 0.000000e+00 0.000000e+00
1
Step 411000
Ar -1.470316e+00 0.000000e+00 0.000000e+00
1
Step 412000
Ar -1.434049e+00 0.000000e+00 0.000000e+00
1
Step 413000
Ar -1.417986e+00 0.000000e+00 0.000000e+00
1
Step 414000
Ar -1.434962e+00 0.000000e+00 0.000000e+00
1
Step 415000
Ar -1.429312e+00 0.000000e+00 0.000000e+00
1
Step 416000
Ar -1.432633e+00 0.000000e+00 0.000000e+00
1
Step 417000
Ar -1.431843e+00 0.000000e+00 0.000000e+00
1
Step 418000
Ar -1.277895e+00 0.000000e+00 0.000000e+00
1
Step 419000
Ar -1.294958e+00 0.000000e+00 0.000000e+00
1
Step 420000
Ar -7.727247e-01 0.000000e+00 0.000000e+00
1
Step 421000
Ar -8.154792e-01 0.000000e+00 0.000000e+00
1
Step 422000
Ar -8.126923e-01 0.000000e+00 0.000000e+00
1
Step 423000
Ar -8.040270e-01 0.000000e+00 0.000000e+00
1
Step 424000
Ar -7.676590e-01 0.000000e+00 0.000000e+00
1
Step 425000
Ar -7.596235e-01 0.000000e+00 0.000000e+00
1
Step 426000
Ar -8.903628e-01 0.000000e+00 0.000000e+00
1
Step 427000
Ar -7.001649e-01 0.000000e+00 0.000000e+00
1
Step 428000
Ar -7.783915e-01 0.000000e+00 0.000000e+00
1
Step 429000
Ar -6.788875e-01 0.000000e+00 0.000000e+00
1
Step 430000
Ar -7.375728e-01 0.000000e+00 0.000000e+00
1
Step 431000
Ar -3.645959e-01 0.000000e+00 0.000000e+00
1
Step 432000
Ar -4.660816e-01 0.000000e+00 0.000000e+00
1
Step 433000
Ar -4.006765e-01 0.000000e+00 0.000000e+00
1
Step 434000
Ar -4.361732e-01 0.000000e+00 0.000000e+00
1
Step 435000
Ar -5.710933e-01 0.000000e+00 0.000000e+00
1
Step 436000
Ar -5.876781e-01 0.000000e+00 0.000000e+00
1
Step 437000
Ar -6.368897e-01 0.000000e+00 0.000000e+00
1
Step 438000
Ar -4.961121e-01 0.000000e+00 0.000000e+00
1
Step 439000
Ar -5.347813e-01 0.000000e+00 0.000000e+00
1
Step 440000
Ar -4.713353e-01 0.000000e+00 0.000000e+00
1
Step 441000
Ar -5.918338e-01 0.000000e+00 0.000000e+00
1
Step 442000
Ar -5.731887e-01 0.000000e+00 0.000000e+00
1
Step 443000
Ar -6.248726e-01 0.000000e+00 0.000000e+00
1
Step 444000
Ar -6.140280e-01 0.000000e+00 0.000000e+00
1
Step 445000
Ar -5.807075e-01 0.000000e+00 0.000000e+00
1
Step 446000
Ar -4.759125e-01 0.000000e+00 0.000000e+00
1
Step 447000
Ar -6.256837e-01 0.000000e+00 0.000000e+00
1
Step 448000
Ar 2.011084e-01 0.000000e+00 0.000000e+00
1
Step 449000
Ar 1.809745e-01 0.000000e+00 0.000000e+00
1
Step 450000
Ar 2.037541e-01 0.000000e+00 0.000000e+00
1
Step 451000
Ar 2.021744e-01 0.000000e+00 0.000000e+00
1
Step 452000
Ar 3.541771e-01 0.000000e+00 0.000000e+00
1
Step 453000
Ar 1.321300e-01 0.000000e+00 0.000000e+00
1
Step 454000
Ar -2.120430e-01 0.000000e+00 0.000000e+00
1
Step 455000
Ar -1.992085e-01 0.000000e+00 0.000000e+00
1
Step 456000
Ar -2.201129e-01 0.000000e+00 0.000000e+00
1
Step 457000
Ar -2.022412e-01 0.000000e+00 0.000000e+00
1
Step 458000
Ar -1.582383e-02 0.000000e+00 0.000000e+00
1
Step 459000
Ar -3.480504e-01 0.000000e+00 0.000000e+00
1
Step 460000
Ar -3.252234e-01 0.000000e+00 0.000000e+00
1
Step 461000
Ar -3.474051e-01 0.000000e+00 0.000000e+00
1
Step 462000
Ar -3.856935e-01 0.000000e+00 0.000000e+00
1
Step 463000
Ar -2.672684e-01 0.000000e+00 0.000000e+00
1
Step 464000
Ar 9.437585e-03 0.000000e+00 0.000000e+00
1
Step 465000
Ar -1.566314e-01 0.000000e+00 0.000000e+00
1
Step 466000
Ar -9.598663e-02 0.000000e+00 0.000000e+00
1
Step 467000
Ar -1.254297e-01 0.000000e+00 0.000000e+00
1
Step 468000
Ar -1.002752e-01 0.000000e+00 0.000000e+00
1
Step 469000
Ar -9.172975e-02 0.000000e+00 0.000000e+00
1
Step 470000
Ar -3.553043e-01 0.000000e+00 0.000000e+00
1
Step 471000
Ar -3.374501e-01 0.000000e+00 0.000000e+00
1
Step 472000
Ar -3.341058e-01 0.000000e+00 0.000000e+00
1
Step 473000
Ar -3.359316e-01 0.000000e+00 0.000000e+00
1
Step 474000
Ar -3.482263e-02 0.000000e+00 0.000000e+00
1
Step 475000
Ar -3.159486e-01 0.000000e+00 0.000000e+00
1
Step 476000
Ar -3.458435e-01 0.000000e+00 0.000000e+00
1
Step 477000
Ar -5.354108e-01 0.000000e+00 0.000000e+00
1
Step 478000
Ar -5.106803e-01 0.000000e+00 0.000000e+00
1
Step 479000
Ar -5.367447e-01 0.000000e+00 0.000000e+00
1
Step 480000
Ar -5.651302e-01 0.000000e+00 0.000000e+00
1
Step 481000
Ar -4.180357e-01 0.000000e+00 0.000000e+00
1
Step 482000
Ar -4.740866e-01 0.000000e+00 0.000000e+00
1
Step 483000
Ar -4.184394e-01 0.000000e+00 0.000000e+00
1
Step 484000
Ar -5.942612e-01 0.000000e+00 0.000000e+00
1
Step 485000
Ar -6.064999e-01 0.000000e+00 0.000000e+00
1
Step 486000
Ar -6.017534e-01 0.000000e+00 0.000000e+00
1
Step 487000
Ar -6.114540e-01 0.000000e+00 0.000000e+00
1
Step 488000
Ar -6.112076e-01 0.000000e+00 0.000000e+00
1
Step 489000
Ar -6.461056e-01 0.000000e+00 0.000000e+00
1
Step 490000
Ar -6.501361e-01 0.000000e+00 0.000000e+00
1
Step 491000
Ar -7.259575e-01 0.000000e+00 0.000000e+00
1
Step 492000
Ar -7.724242e-01 0.000000e+00 0.000000e+00
1
Step 493000
Ar -6.077114e-01 0.000000e+00 0.000000e+00
1
Step 494000
Ar -6.045965e-01 0.000000e+00 0.000000e+00
1
Step 495000
Ar -5.130080e-01 0.000000e+00 0.000000e+00
1
Step 496000
Ar -1.286030e-02 0.000000e+00 0.000000e+00
1
Step 497000
Ar 1.500309e-01 0.000000e+00 0.000000e+00
1
Step 498000
Ar 2.512006e-01 0.000000e+00 0.000000e+00
1
Step 499000
Ar 3.026621e-01 0.000000e+00 0.000000e+00
1
Step 500000
Ar 2.737620e-01 0.000000e+00 0.000000e+00
1
Step 501000
Ar 2.370315e-01 0.000000e+00 0.000000e+00
1
Step 502000
Ar 2.523363e-01 0.000000e+00 0.000000e+00
1
Step 503000
Ar 1.954738e-01 0.000000e+00 0.000000e+00
1
Step 504000
Ar 2.041244e-01 0.000000e+00 0.000000e+00
1
Step 505000
Ar 2.294560e-01 0.000000e+00 0.000000e+00
1
Step 506000
Ar 3.501495e-01 0.000000e+00 0.000000e+00
1
Step 507000
Ar 2.891385e-01 0.000000e+00 0.000000e+00
1
Step 508000
Ar 2.322939e-01 0.000000e+00 0.000000e+00
1
Step 509000
Ar 6.445211e-01 0.000000e+00 0.000000e+00
1
Step 510000
Ar 6.639945e-01 0.000000e+00 0.000000e+00
1
Step 511000
Ar 6.465251e-01 0.000000e+00 0.000000e+00
1
Step 512000
Ar 6.652524e-01 0.000000e+00 0.000000e+00
1
Step 513000
Ar 6.546834e-01 0.000000e+00 0.000000e+00
1
Step 514000
Ar 6.673712e-01 0.000000e+00 0.000000e+00
1
Step 515000
Ar 7.034634e-01 0.000000e+00 0.000000e+00
1
Step 516000
Ar 4.213584e-01 0.000000e+00 0.000000e+00
1
Step 517000
Ar 4.592721e-01 0.000000e+00 0.000000e+00
1
Step 518000
Ar 3.940738e-01 0.000000e+00 0.000000e+00
1
Step 519000
Ar 3.918558e-01 0.000000e+00 0.000000e+00
1
Step 520000
Ar 8.265643e-01 0.000000e+00 0.000000e+00
1
Step 521000
Ar 7.394611e-01 0.000000e+00 0.000000e+00
1
Step 522000
Ar 7.392560e-01 0.000000e+00 0.000000e+00
1
Step 523000
Ar 4.423246e-01 0.000000e+00 0.000000e+00
1
Step 524000
Ar 5.146173e-01 0.000000e+00 0.000000e+00
1
Step 525000
Ar 5.206052e-01 0.000000e+00 0.000000e+00
1
Step 526000
Ar 7.990981e-01 0.000000e+00 0.000000e+00
1
Step 527000
Ar 7.382988e-01 0.000000e+00 0.000000e+00
1
Step 528000
Ar 5.731683e-01 0.000000e+00 0.000000e+00
1
Step 529000
Ar 5.846615e-01 0.000000e+00 0.000000e+00
1
Step 530000
Ar 4.827809e-01 0.000000e+00 0.000000e+00
1
Step 531000
Ar 3.002601e-01 0.000000e+00 0.000000e+00
1
Step 532000
Ar 2.902230e-01 0.000000e+00 0.000000e+00
1
Step 533000
Ar 2.361770e-01 0.000000e+00 0.000000e+00
1
Step 534000
Ar 1.950647e-01 0.000000e+00 0.000000e+00
1
Step 535000
Ar 1.672598e-01 0.000000e+00 0.000000e+00
1
Step 536000
Ar 8.793499e-01 0.000000e+00 0.000000e+00
1
Step 537000
Ar 7.626930e-01 0.000000e+00 0.000000e+00
1
Step 538000
Ar 7.950019e-01 0.000000e+00 0.000000e+00
1
Step 539000
Ar 7.428890e-01 0.000000e+00 0.000000e+00
1
Step 540000
Ar 3.672171e-01 0.000000e+00 0.000000e+00
1
Step 541000
Ar 6.513908e-01 0.000000e+00 0.000000e+00
1
Step 542000
Ar 6.527713e-01 0.000000e+00 0.000000e+00
1
Step 543000
Ar 5.022039e-01 0.000000e+00 0.000000e+00
1
Step 544000
Ar 4.668372e-01 0.000000e+00 0.000000e+00
1
Step 545000
Ar 6.028895e-01 0.000000e+00 0.000000e+00
1
Step 546000
Ar 5.980636e-01 0.000000e+00 0.000000e+00
1
Step 547000
Ar 6.143437e-01 0.000000e+00 0.000000e+00
1
Step 548000
Ar 4.697068e-01 0.000000e+00 0.000000e+00
1
Step 549000
Ar 4.047134e-01 0.000000e+00 0.000000e+00
1
Step 550000
Ar 3.876788e-01 0.000000e+00 0.000000e+00
1
Step 551000
Ar 3.257864e-01 0.000000e+00 0.000000e+00
1
Step 552000
Ar 6.484620e-01 0.000000e+00 0.000000e+00
1
Step 553000
Ar 5.447487e-01 0.000000e+00 0.000000e+00
1
Step 554000
Ar 5.550401e-01 0.000000e+00 0.000000e+00
1
Step 555000
Ar 5.561407e-01 0.000000e+00 0.000000e+00
1
Step 556000
Ar 6.281396e-01 0.000000e+00 0.000000e+00
1
Step 557000
Ar 5.980431e-01 0.000000e+00 0.000000e+00
1
Step 558000
Ar 4.893754e-01 0.000000e+00 0.000000e+00
1
Step 559000
Ar 6.449906e-01 0.000000e+00 0.000000e+00
1
Step 560000
Ar 6.337215e-01 0.000000e+00 0.000000e+00
1
Step 561000
Ar 4.064384e-01 0.000000e+00 0.000000e+00
1
Step 562000
Ar 4.832015e-01 0.000000e+00 0.000000e+00
1
Step 563000
Ar 4.920641e-01 0.000000e+00 0.000000e+00
1
Step 564000
Ar 5.346956e-01 0.000000e+00 0.000000e+00
1
Step 565000
Ar 4.959034e-01 0.000000e+00 0.000000e+00
1
Step 566000
Ar 4.763172e-01 0.000000e+00 0.000000e+00
1
Step 567000
Ar 1.505443e-01 0.000000e+00 0.000000e+00
1
Step 568000
Ar 8.734713e-03 0.000000e+00 0.000000e+00
1
Step 569000
Ar 4.432913e-02 0.000000e+00 0.000000e+00
1
Step 570000
Ar 1.148202e-02 0.000000e+00 0.000000e+00
1
Step 571000
Ar 5.566072e-02 0.000000e+00 0.000000e+00
1
Step 572000
Ar 1.045680e-01 0.000000e+00 0.000000e+00
1
Step 573000
Ar 1.006650e-01 0.000000e+00 0.000000e+00
1
Step 574000
Ar 1.014629e-01 0.000000e+00 0.000000e+00
1
Step 575000
Ar 1.079396e-01 0.000000e+00 0.000000e+00
1
Step 576000
Ar 3.773323e-02 0.000000e+00 0.000000e+00
1
Step 577000
Ar 7.562283e-02 0.000000e+00 0.000000e+00
1
Step 578000
Ar 3.734899e-01 0.000000e+00 0.000000e+00
1
Step 579000
Ar 3.873785e-01 0.000000e+00 0.000000e+00
1
Step 580000
Ar 2.766500e-01 0.000000e+00 0.000000e+00
1
Step 581000
Ar 2.651744e-01 0.000000e+00 0.000000e+00
1
Step 582000
Ar 2.785585e-01 0.000000e+00 0.000000e+00
1
Step 583000
Ar 3.210918e-01 0.000000e+00 0.000000e+00
1
Step 584000
Ar 3.203625e-01 0.000000e+00 0.000000e+00
1
Step 585000
Ar 2.997780e-01 0.000000e+00 0.000000e+00
1
Step 586000
Ar 3.020752e-01 0.000000e+00 0.000000e+00
1
Step 587000
Ar 3.202023e-01 0.000000e+00 0.000000e+00
1
Step 588000
Ar 3.215400e-01 0.000000e+00 0.000000e+00
1
Step 589000
Ar 6.855198e-01 0.000000e+00 0.000000e+00
1
Step 590000
Ar 7.085568e-01 0.000000e+00 0.000000e+00
1
Step 591000
Ar 7.084416e-01 0.000000e+00 0.000000e+00
1
Step 592000
Ar 6.431484e-01 0.000000e+00 0.000000e+00
1
Step 593000
Ar 6.923009e-01 0.000000e+00 0.000000e+00
1
Step 594000
Ar 6.147965e-01 0.000000e+00 0.000000e+00
1
Step 595000
Ar 5.775816e-01 0.000000e+00 0.000000e+00
1
Step 596000
Ar 5.828005e-01 0.000000e+00 0.000000e+00
1
Step 597000
Ar 5.908330e-01 0.000000e+00 0.000000e+00
1
Step 598000
Ar 5.551683e-01 0.000000e+00 0.000000e+00
1
Step 599000
Ar 4.935881e-01 0.000000e+00 0.000000e+00
1
Step 600000
Ar 5.952519e-01 0.000000e+00 0.000000e+00
1
Step 601000
Ar 7.429680e-01 0.000000e+00 0.000000e+00
1
Step 602000
Ar 6.377107e-01 0.000000e+00 0.000000e+00
1
Step 603000
Ar 7.191332e-01 0.000000e+00 0.000000e+00
1
Step 604000
Ar 9.929085e-01 0.000000e+00 0.000000e+00
1
Step 605000
Ar 9.384176e-01 0.000000e+00 0.000000e+00
1
Step 606000
Ar 9.439885e-01 0.000000e+00 0.000000e+00
1
Step 607000
Ar 1.265662e+00 0.000000e+00 0.000000e+00
1
Step 608000
Ar 1.225553e+00 0.000000e+00 0.000000e+00
1
Step 609000
Ar 1.265892e+00 0.000000e+00 0.000000e+00
1
Step 610000
Ar 6.398831e-01 0.000000e+00 0.000000e+00
1
Step 611000
Ar 6.295902e-01 0.000000e+00 0.000000e+00
1
Step 612000
Ar 7.119691e-01 0.000000e+00 0.000000e+00
1
Step 613000
Ar 7.202887e-01 0.000000e+00 0.000000e+00
1
Step 614000
Ar 7.958092e-01 0.000000e+00 0.000000e+00
1
Step 615000
Ar 8.263834e-01 0.000000e+00 0.000000e+00
1
Step 616000
Ar 8.522763e-01 0.000000e+00 0.000000e+00
1
Step 617000
Ar 8.593967e-01 0.000000e+00 0.000000e+00
1
Step 618000
Ar 8.838756e-01 0.000000e+00 0.000000e+00
1
Step 619000
Ar 8.879894e-01 0.000000e+00 0.000000e+00
1
Step 620000
Ar 8.055678e-01 0.000000e+00 0.000000e+00
1
Step 621000
Ar 8.268025e-01 0.000000e+00 0.000000e+00
1
Step 622000
Ar 8.370127e-01 0.000000e+00 0.000000e+00
1
Step 623000
Ar 8.565287e-01 0.000000e+00 0.000000e+00
1
Step 624000
Ar 7.946361e-01 0.000000e+00 0.000000e+00
1
Step 625000
Ar 7.932059e-01 0.000000e+00 0.000000e+00
1
Step 626000
Ar 7.944901e-01 0.000000e+00 0.000000e+00
1
Step 627000
Ar 7.933026e-01 0.000000e+00 0.000000e+00
1
Step 628000
Ar 7.949695e-01 0.000000e+00 0.000000e+00
1
Step 629000
Ar 7.928813e-01 0.000000e+00 0.000000e+00
1
Step 630000
Ar 7.936516e-01 0.000000e+00 0.000000e+00
1
Step 631000
Ar 8.550298e-01 0.000000e+00 0.000000e+00
1
Step 632000
Ar 8.381605e-01 0.000000e+00 0.000000e+00
1
Step 633000
Ar 8.513127e-01 0.000000e+00 0.000000e+00
1
Step 634000
Ar 7.830031e-01 0.000000e+00 0.000000e+00
1
Step 635000
Ar 8.437069e-01 0.000000e+00 0.000000e+00
1
Step 636000
Ar 8.553331e-01 0.000000e+00 0.000000e+00
1
Step 637000
Ar 6.488935e-01 0.000000e+00 0.000000e+00
1
Step 638000
Ar 6.792488e-01 0.000000e+00 0.000000e+00
1
Step 639000
Ar 6.920157e-01 0.000000e+00 0.000000e+00
1
Step 640000
Ar 5.899945e-01 0.000000e+00 0.000000e+00
1
Step 641000
Ar 4.775957e-01 0.000000e+00 0.000000e+00
1
Step 642000
Ar 4.682309e-01 0.000000e+00 0.000000e+00
1
Step 643000
Ar 1.289453e-01 0.000000e+00 0.000000e+00
1
Step 644000
Ar 1.428647e-01 0.000000e+00 0.000000e+00
1
Step 645000
Ar 2.163287e-01 0.000000e+00 0.000000e+00
1
Step 646000
Ar 9.799570e-02 0.000000e+00 0.000000e+00
1
Step 647000
Ar 6.762483e-02 0.000000e+00 0.000000e+00
1
Step 648000
Ar -1.237299e-01 0.000000e+00 0.000000e+00
1
Step 649000
Ar -9.535855e-02 0.000000e+00 0.000000e+00
1
Step 650000
Ar -3.113726e-01 0.000000e+00 0.000000e+00
1
Step 651000