1
Step 120000
Ar 8.252225e-01 0.000000e+00 0.000000e+00
1
Step 121000
Ar 8.601150e-01 0.000000e+00 0.000000e+00
1
Step 122000
Ar 9.640888e-01 0.000000e+00 0.000000e+00
1
Step 123000
Ar 1.260036e+00 0.000000e+00 0.000000e+00
1
Step 124000
Ar 1.074294e+00 0.000000e+00 0.000000e+00
1
Step 125000
Ar 1.034120e+00 0.000000e+00 0.000000e+00
1
Step 126000
Ar 1.064634e+00 0.000000e+00 0.000000e+00
1
Step 127000
Ar 1.082117e+00 0.000000e+00 0.000000e+00
1
Step 128000
Ar 1.108047e+00 0.000000e+00 0.000000e+00
1
Step 129000
Ar 1.194115e+00 0.000000e+00 0.000000e+00
1
Step 130000
Ar 1.108775e+00 0.000000e+00 0.000000e+00
1
Step 131000
Ar 1.106375e+00 0.000000e+00 0.000000e+00
1
Step 132000
Ar 1.143879e+00 0.000000e+00 0.000000e+00
1
Step 133000
Ar 1.067690e+00 0.000000e+00 0.000000e+00
1
Step 134000
Ar 1.070206e+00 0.000000e+00 0.000000e+00
1
Step 135000
Ar 1.310110e+00 0.000000e+00 0.000000e+00
1
Step 136000
Ar 1.239789e+00 0.000000e+00 0.000000e+00
1
Step 137000
Ar 1.256543e+00 0.000000e+00 0.000000e+00
1
Step 138000
Ar 1.261710e+00 0.000000e+00 0.000000e+00
1
Step 139000
Ar 1.320043e+00 0.000000e+00 0.000000e+00
1
Step 140000
Ar 1.087192e+00 0.000000e+00 0.000000e+00
1
Step 141000
Ar 1.099936e+00 0.000000e+00 0.000000e+00
1
Step 142000
Ar 1.084295e+00 0.000000e+00 0.000000e+00
1
Step 143000
Ar 1.157523e+00 0.000000e+00 0.000000e+00
1
Step 144000
Ar 8.358403e-01 0.000000e+00 0.000000e+00
1
Step 145000
Ar 1.006231e+00 0.000000e+00 0.000000e+00
1
Step 146000
Ar 9.419342e-01 0.000000e+00 0.000000e+00
1
Step 147000
Ar 9.964793e-01 0.000000e+00 0.000000e+00
1
Step 148000
Ar 1.007663e+00 0.000000e+00 0.000000e+00
1
Step 149000
Ar 1.007760e+00 0.000000e+00 0.000000e+00
1
Step 150000
Ar 9.633419e-01 0.000000e+00 0.000000e+00
1
Step 151000
Ar 9.373081e-01 0.000000e+00 0.000000e+00
1
Step 152000
Ar 8.850252e-01 0.000000e+00 0.000000e+00
1
Step 153000
Ar 9.549880e-01 0.000000e+00 0.000000e+00
1
Step 154000
Ar 9.559002e-01 0.000000e+00 0.000000e+00
1
Step 155000
Ar 9.599266e-01 0.000000e+00 0.000000e+00
1
Step 156000
Ar 9.610080e-01 0.000000e+00 0.000000e+00
1
Step 157000
Ar 9.609506e-01 0.000000e+00 0.000000e+00
1
Step 158000
Ar 9.587841e-01 0.000000e+00 0.000000e+00
1
Step 159000
Ar 9.032775e-01 0.000000e+00 0.000000e+00
1
Step 160000
Ar 8.657193e-01 0.000000e+00 0.000000e+00
1
Step 161000
Ar 8.808819e-01 0.000000e+00 0.000000e+00
1
Step 162000
Ar 1.000224e+00 0.000000e+00 0.000000e+00
1
Step 163000
Ar 1.006383e+00 0.000000e+00 0.000000e+00
1
Step 164000
Ar 9.745641e-01 0.000000e+00 0.000000e+00
1
Step 165000
Ar 1.007774e+00 0.000000e+00 0.000000e+00
1
Step 166000
Ar 1.006726e+00 0.000000e+00 0.000000e+00
1
Step 167000
Ar 9.816311e-01 0.000000e+00 0.000000e+00
1
Step 168000
Ar 7.168426e-01 0.000000e+00 0.000000e+00
1
Step 169000
Ar 8.063045e-01 0.000000e+00 0.000000e+00
1
Step 170000
Ar 7.478019e-01 0.000000e+00 0.000000e+00
1
Step 171000
Ar 7.821610e-01 0.000000e+00 0.000000e+00
1
Step 172000
Ar 7.736255e-01 0.000000e+00 0.000000e+00
1
Step 173000
Ar 8.750807e-01 0.000000e+00 0.000000e+00
1
Step 174000
Ar 8.765439e-01 0.000000e+00 0.000000e+00
1
Step 175000
Ar 8.752454e-01 0.000000e+00 0.000000e+00
1
Step 176000
Ar 1.195390e+00 0.000000e+00 0.000000e+00
1
Step 177000
Ar 1.317699e+00 0.000000e+00 0.000000e+00
1
Step 178000
Ar 1.313175e+00 0.000000e+00 0.000000e+00
1
Step 179000
Ar 9.985494e-01 0.000000e+00 0.000000e+00
1
Step 180000
Ar 1.032552e+00 0.000000e+00 0.000000e+00
1
Step 181000
Ar 1.007209e+00 0.000000e+00 0.000000e+00
1
Step 182000
Ar 1.006917e+00 0.000000e+00 0.000000e+00
1
Step 183000
Ar 9.304673e-01 0.000000e+00 0.000000e+00
1
Step 184000
Ar 9.444066e-01 0.000000e+00 0.000000e+00
1
Step 185000
Ar 2.547093e-01 0.000000e+00 0.000000e+00
1
Step 186000
Ar -1.237961e+00 0.000000e+00 0.000000e+00
1
Step 187000
Ar -1.164605e+00 0.000000e+00 0.000000e+00
1
Step 188000
Ar -1.162414e+00 0.000000e+00 0.000000e+00
1
Step 189000
Ar -8.489553e-01 0.000000e+00 0.000000e+00
1
Step 190000
Ar -7.532250e-01 0.000000e+00 0.000000e+00
1
Step 191000
Ar -8.005141e-01 0.000000e+00 0.000000e+00
1
Step 192000
Ar -1.007345e+00 0.000000e+00 0.000000e+00
1
Step 193000
Ar -1.067267e+00 0.000000e+00 0.000000e+00
1
Step 194000
Ar -9.901693e-01 0.000000e+00 0.000000e+00
1
Step 195000
Ar -9.740091e-01 0.000000e+00 0.000000e+00
1
Step 196000
Ar -9.957070e-01 0.000000e+00 0.000000e+00
1
Step 197000
Ar -9.667992e-01 0.000000e+00 0.000000e+00
1
Step 198000
Ar -9.670236e-01 0.000000e+00 0.000000e+00
1
Step 199000
Ar -1.175715e+00 0.000000e+00 0.000000e+00
1
Step 200000
Ar -1.077647e+00 0.000000e+00 0.000000e+00
1
Step 201000
Ar -1.133938e+00 0.000000e+00 0.000000e+00
1
Step 202000
Ar -1.038345e+00 0.000000e+00 0.000000e+00
1
Step 203000
Ar -1.046347e+00 0.000000e+00 0.000000e+00
1
Step 204000
Ar -9.877439e-01 0.000000e+00 0.000000e+00
1
Step 205000
Ar -8.597923e-01 0.000000e+00 0.000000e+00
1
Step 206000
Ar -7.954190e-01 0.000000e+00 0.000000e+00
1
Step 207000
Ar -7.267412e-01 0.000000e+00 0.000000e+00
1
Step 208000
Ar -6.166331e-01 0.000000e+00 0.000000e+00
1
Step 209000
Ar -6.760485e-01 0.000000e+00 0.000000e+00
1
Step 210000
Ar -6.201332e-01 0.000000e+00 0.000000e+00
1
Step 211000
Ar -5.407168e-01 0.000000e+00 0.000000e+00
1
Step 212000
Ar -3.233579e-01 0.000000e+00 0.000000e+00
1
Step 213000
Ar -7.902102e-02 0.000000e+00 0.000000e+00
1
Step 214000
Ar -2.720702e-01 0.000000e+00 0.000000e+00
1
Step 215000
Ar -3.290579e-01 0.000000e+00 0.000000e+00
1
Step 216000
Ar -4.172868e-01 0.000000e+00 0.000000e+00
1
Step 217000
Ar -7.862562e-01 0.000000e+00 0.000000e+00
1
Step 218000
Ar -8.000577e-01 0.000000e+00 0.000000e+00
1
Step 219000
Ar -7.914221e-01 0.000000e+00 0.000000e+00
1
Step 220000
Ar -8.023351e-01 0.000000e+00 0.000000e+00
1
Step 221000
Ar -7.440328e-01 0.000000e+00 0.000000e+00
1
Step 222000
Ar -7.512182e-01 0.000000e+00 0.000000e+00
1
Step 223000
Ar -8.021946e-01 0.000000e+00 0.000000e+00
1
Step 224000
Ar -6.887045e-01 0.000000e+00 0.000000e+00
1
Step 225000
Ar -6.433763e-01 0.000000e+00 0.000000e+00
1
Step 226000
Ar -6.259592e-01 0.000000e+00 0.000000e+00
1
Step 227000
Ar -4.666326e-01 0.000000e+00 0.000000e+00
1
Step 228000
Ar -6.443727e-01 0.000000e+00 0.000000e+00
1
Step 229000
Ar -6.833787e-01 0.000000e+00 0.000000e+00
1
Step 230000
Ar -8.902927e-01 0.000000e+00 0.000000e+00
1
Step 231000
Ar -9.052081e-01 0.000000e+00 0.000000e+00
1
Step 232000
Ar -1.295703e+00 0.000000e+00 0.000000e+00
1
Step 233000
Ar -1.157012e+00 0.000000e+00 0.000000e+00
1
Step 234000
Ar -9.919699e-01 0.000000e+00 0.000000e+00
1
Step 235000
Ar -1.264970e+00 0.000000e+00 0.000000e+00
1
Step 236000
Ar -1.078775e+00 0.000000e+00 0.000000e+00
1
Step 237000
Ar -1.079975e+00 0.000000e+00 0.000000e+00
1
Step 238000
Ar -1.077843e+00 0.000000e+00 0.000000e+00
1
Step 239000
Ar -1.081770e+00 0.000000e+00 0.000000e+00
1
Step 240000
Ar -9.965696e-01 0.000000e+00 0.000000e+00
1
Step 241000
Ar -8.763411e-01 0.000000e+00 0.000000e+00
1
Step 242000
Ar -8.059432e-01 0.000000e+00 0.000000e+00
1
Step 243000
Ar -9.385013e-01 0.000000e+00 0.000000e+00
1
Step 244000
Ar -8.576667e-01 0.000000e+00 0.000000e+00
1
Step 245000
Ar -8.459557e-01 0.000000e+00 0.000000e+00
1
Step 246000
Ar -7.331223e-01 0.000000e+00 0.000000e+00
1
Step 247000
Ar -7.067320e-01 0.000000e+00 0.000000e+00
1
Step 248000
Ar -7.043820e-01 0.000000e+00 0.000000e+00
1
Step 249000
Ar -7.096256e-01 0.000000e+00 0.000000e+00
1
Step 250000
Ar -6.163061e-01 0.000000e+00 0.000000e+00
1
Step 251000
Ar -5.780833e-01 0.000000e+00 0.000000e+00
1
Step 252000
Ar -5.506000e-01 0.000000e+00 0.000000e+00
1
Step 253000
Ar -3.691953e-01 0.000000e+00 0.000000e+00
1
Step 254000
Ar -6.349439e-01 0.000000e+00 0.000000e+00
1
Step 255000
Ar -6.352544e-01 0.000000e+00 0.000000e+00
1
Step 256000
Ar -5.344458e-01 0.000000e+00 0.000000e+00
1
Step 257000
Ar -4.688129e-01 0.000000e+00 0.000000e+00
1
Step 258000
Ar -5.067636e-01 0.000000e+00 0.000000e+00
1
Step 259000
Ar -5.696028e-01 0.000000e+00 0.000000e+00
1
Step 260000
Ar -5.811783e-01 0.000000e+00 0.000000e+00
1
Step 261000
Ar -5.388570e-01 0.000000e+00 0.000000e+00
1
Step 262000
Ar -5.254292e-01 0.000000e+00 0.000000e+00
1
Step 263000
Ar -4.791603e-01 0.000000e+00 0.000000e+00
1
Step 264000
Ar -4.779328e-01 0.000000e+00 0.000000e+00
1
Step 265000
Ar -5.330547e-01 0.000000e+00 0.000000e+00
1
Step 266000
Ar -6.011849e-01 0.000000e+00 0.000000e+00
1
Step 267000
Ar -4.415189e-01 0.000000e+00 0.000000e+00
1
Step 268000
Ar -5.300593e-01 0.000000e+00 0.000000e+00
1
Step 269000
Ar -4.803007e-01 0.000000e+00 0.000000e+00
1
Step 270000
Ar -4.817928e-01 0.000000e+00 0.000000e+00
1
Step 271000
Ar -1.132263e+00 0.000000e+00 0.000000e+00
1
Step 272000
Ar -1.218425e+00 0.000000e+00 0.000000e+00
1
Step 273000
Ar -1.263612e+00 0.000000e+00 0.000000e+00
1
Step 274000
Ar -1.177643e+00 0.000000e+00 0.000000e+00
1
Step 275000
Ar -1.242834e+00 0.000000e+00 0.000000e+00
1
Step 276000
Ar -1.180996e+00 0.000000e+00 0.000000e+00
1
Step 277000
Ar -1.241727e+00 0.000000e+00 0.000000e+00
1
Step 278000
Ar -1.243190e+00 0.000000e+00 0.000000e+00
1
Step 279000
Ar -1.182749e+00 0.000000e+00 0.000000e+00
1
Step 280000
Ar -1.330358e+00 0.000000e+00 0.000000e+00
1
Step 281000
Ar -1.317240e+00 0.000000e+00 0.000000e+00
1
Step 282000
Ar -1.325133e+00 0.000000e+00 0.000000e+00
1
Step 283000
Ar -1.319596e+00 0.000000e+00 0.000000e+00
1
Step 284000
Ar -1.136228e+00 0.000000e+00 0.000000e+00
1
Step 285000
Ar -1.119143e+00 0.000000e+00 0.000000e+00
1
Step 286000
Ar -1.102934e+00 0.000000e+00 0.000000e+00
1
Step 287000
Ar -1.129872e+00 0.000000e+00 0.000000e+00
1
Step 288000
Ar -1.138030e+00 0.000000e+00 0.000000e+00
1
Step 289000
Ar -1.134702e+00 0.000000e+00 0.000000e+00
1
Step 290000
Ar -1.137781e+00 0.000000e+00 0.000000e+00
1
Step 291000
Ar -1.153348e+00 0.000000e+00 0.000000e+00
1
Step 292000
Ar -1.189063e+00 0.000000e+00 0.000000e+00
1
Step 293000
Ar -1.300685e+00 0.000000e+00 0.000000e+00
1
Step 294000
Ar -1.360935e+00 0.000000e+00 0.000000e+00
1
Step 295000
Ar -1.259509e+00 0.000000e+00 0.000000e+00
1
Step 296000
Ar -1.210290e+00 0.000000e+00 0.000000e+00
1
Step 297000
Ar -1.137867e+00 0.000000e+00 0.000000e+00
1
Step 298000
Ar -1.109977e+00 0.000000e+00 0.000000e+00
1
Step 299000
Ar -1.250123e+00 0.000000e+00 0.000000e+00
1
Step 300000
Ar -1.246903e+00 0.000000e+00 0.000000e+00
1
Step 301000
Ar -1.228998e+00 0.000000e+00 0.000000e+00
1
Step 302000
Ar -1.287570e+00 0.000000e+00 0.000000e+00
1
Step 303000
Ar -1.082600e+00 0.000000e+00 0.000000e+00
1
Step 304000
Ar -1.043141e+00 0.000000e+00 0.000000e+00
1
Step 305000
Ar -1.068801e+00 0.000000e+00 0.000000e+00
1
Step 306000
Ar -1.061716e+00 0.000000e+00 0.000000e+00
1
Step 307000
Ar -1.081425e+00 0.000000e+00 0.000000e+00
1
Step 308000
Ar -9.151228e-01 0.000000e+00 0.000000e+00
1
Step 309000
Ar -8.980632e-01 0.000000e+00 0.000000e+00
1
Step 310000
Ar -8.845833e-01 0.000000e+00 0.000000e+00
1
Step 311000
Ar -8.937449e-01 0.000000e+00 0.000000e+00
1
Step 312000
Ar -8.466630e-01 0.000000e+00 0.000000e+00
1
Step 313000
Ar -8.000479e-01 0.000000e+00 0.000000e+00
1
Step 314000
Ar -8.204561e-01 0.000000e+00 0.000000e+00
1
Step 315000
Ar -8.644344e-01 0.000000e+00 0.000000e+00
1
Step 316000
Ar -8.574272e-01 0.000000e+00 0.000000e+00
1
Step 317000
Ar -8.730948e-01 0.000000e+00 0.000000e+00
1
Step 318000
Ar -8.869356e-01 0.000000e+00 0.000000e+00
1
Step 319000
Ar -9.176567e-01 0.000000e+00 0.000000e+00
1
Step 320000
Ar -9.059368e-01 0.000000e+00 0.000000e+00
1
Step 321000
Ar -9.998815e-01 0.000000e+00 0.000000e+00
1
Step 322000
Ar -9.965381e-01 0.000000e+00 0.000000e+00
1
Step 323000
Ar -9.878090e-01 0.000000e+00 0.000000e+00
1
Step 324000
Ar -9.696494e-01 0.000000e+00 0.000000e+00
1
Step 325000
Ar -1.022332e+00 0.000000e+00 0.000000e+00
1
Step 326000
Ar -1.203172e+00 0.000000e+00 0.000000e+00
1
Step 327000
Ar -1.103473e+00 0.000000e+00 0.000000e+00
1
Step 328000
Ar -1.144850e+00 0.000000e+00 0.000000e+00
1
Step 329000
Ar -1.136816e+00 0.000000e+00 0.000000e+00
1
Step 330000
Ar -8.898691e-01 0.000000e+00 0.000000e+00
1
Step 331000
Ar -3.400863e-01 0.000000e+00 0.000000e+00
1
Step 332000
Ar -5.224859e-02 0.000000e+00 0.000000e+00
1
Step 333000
Ar 2.043239e-01 0.000000e+00 0.000000e+00
1
Step 334000
Ar 6.683118e-01 0.000000e+00 0.000000e+00
1
Step 335000
Ar 7.140196e-01 0.000000e+00 0.000000e+00
1
Step 336000
Ar 4.050635e-01 0.000000e+00 0.000000e+00
1
Step 337000
Ar 6.303120e-01 0.000000e+00 0.000000e+00
1
Step 338000
Ar 6.438141e-01 0.000000e+00 0.000000e+00
1
Step 339000
Ar 6.799308e-01 0.000000e+00 0.000000e+00
1
Step 340000
Ar 7.428817e-01 0.000000e+00 0.000000e+00
1
Step 341000
Ar 7.434514e-01 0.000000e+00 0.000000e+00
1
Step 342000
Ar 8.478556e-01 0.000000e+00 0.000000e+00
1
Step 343000
Ar 4.817210e-01 0.000000e+00 0.000000e+00
1
Step 344000
Ar 5.522515e-01 0.000000e+00 0.000000e+00
1
Step 345000
Ar 5.431115e-01 0.000000e+00 0.000000e+00
1
Step 346000
Ar 5.686654e-01 0.000000e+00 0.000000e+00
1
Step 347000
Ar 8.895473e-01 0.000000e+00 0.000000e+00
1
Step 348000
Ar 9.349379e-01 0.000000e+00 0.000000e+00
1
Step 349000
Ar 9.648804e-01 0.000000e+00 0.000000e+00
1
Step 350000
Ar 9.649501e-01 0.000000e+00 0.000000e+00
1
Step 351000
Ar 9.639901e-01 0.000000e+00 0.000000e+00
1
Step 352000
Ar 8.893115e-01 0.000000e+00 0.000000e+00
1
Step 353000
Ar 9.214236e-01 0.000000e+00 0.000000e+00
1
Step 354000
Ar 8.654728e-01 0.000000e+00 0.000000e+00
1
Step 355000
Ar 1.098844e+00 0.000000e+00 0.000000e+00
1
Step 356000
Ar 1.309411e+00 0.000000e+00 0.000000e+00
1
Step 357000
Ar 1.242366e+00 0.000000e+00 0.000000e+00
1
Step 358000
Ar 1.307302e+00 0.000000e+00 0.000000e+00
1
Step 359000
Ar 1.262844e+00 0.000000e+00 0.000000e+00
1
Step 360000
Ar 1.255928e+00 0.000000e+00 0.000000e+00
1
Step 361000
Ar 1.124850e+00 0.000000e+00 0.000000e+00
1
Step 362000
Ar 9.825308e-01 0.000000e+00 0.000000e+00
1
Step 363000
Ar 1.061631e+00 0.000000e+00 0.000000e+00
1
Step 364000
Ar 1.298217e+00 0.000000e+00 0.000000e+00
1
Step 365000
Ar 1.291434e+00 0.000000e+00 0.000000e+00
1
Step 366000
Ar 1.225374e+00 0.000000e+00 0.000000e+00
1
Step 367000
Ar 1.314959e+00 0.000000e+00 0.000000e+00
1
Step 368000
Ar 1.297149e+00 0.000000e+00 0.000000e+00
1
Step 369000
Ar 1.291727e+00 0.000000e+00 0.000000e+00
1
Step 370000
Ar 1.299648e+00 0.000000e+00 0.000000e+00
1
Step 371000
Ar 1.406399e+00 0.000000e+00 0.000000e+00
1
Step 372000
Ar 1.355626e+00 0.000000e+00 0.000000e+00
1
Step 373000
Ar 1.350157e+00 0.000000e+00 0.000000e+00
1
Step 374000
Ar 1.375573e+00 0.000000e+00 0.000000e+00
1
Step 375000
Ar 1.390255e+00 0.000000e+00 0.000000e+00
1
Step 376000
Ar 1.363414e+00 0.000000e+00 0.000000e+00
1
Step 377000
Ar 1.374556e+00 0.000000e+00 0.000000e+00
1
Step 378000
Ar 1.393063e+00 0.000000e+00 0.000000e+00
1
Step 379000
Ar 1.393717e+00 0.000000e+00 0.000000e+00
1
Step 380000
Ar 1.143628e+00 0.000000e+00 0.000000e+00
1
Step 381000
Ar 1.172243e+00 0.000000e+00 0.000000e+00
1
Step 382000
Ar 1.215006e+00 0.000000e+00 0.000000e+00
1
Step 383000
Ar 1.208367e+00 0.000000e+00 0.000000e+00
1
Step 384000
Ar 1.039720e+00 0.000000e+00 0.000000e+00
1
Step 385000
Ar 6.683588e-01 0.000000e+00 0.000000e+00
1
Step 386000
Ar 7.801371e-01 0.000000e+00 0.000000e+00
1
Step 387000
Ar 7.282473e-01 0.000000e+00 0.000000e+00
1
Step 388000
Ar 7.755886e-01 0.000000e+00 0.000000e+00
1
Step 389000
Ar 7.731750e-01 0.000000e+00 0.000000e+00
1
Step 390000
Ar 8.024813e-01 0.000000e+00 0.000000e+00
1
Step 391000
Ar 7.869244e-01 0.000000e+00 0.000000e+00
1
Step 392000
Ar 7.101510e-01 0.000000e+00 0.000000e+00
1
Step 393000
Ar 5.835812e-01 0.000000e+00 0.000000e+00
1
Step 394000
Ar 5.746568e-01 0.000000e+00 0.000000e+00
1
Step 395000
Ar 5.074287e-01 0.000000e+00 0.000000e+00
1
Step 396000
Ar 4.969375e-01 0.000000e+00 0.000000e+00
1
Step 397000
Ar 5.059949e-01 0.000000e+00 0.000000e+00
1
Step 398000
Ar 5.243403e-01 0.000000e+00 0.000000e+00
1
Step 399000
Ar 6.185217e-01 0.000000e+00 0.000000e+00
1
Step 400000
Ar 6.090536e-01 0.000000e+00 0.000000e+00
1
Step 401000
Ar 4.758873e-01 0.000000e+00 0.000000e+00
1
Step 402000
Ar 5.387158e-01 0.000000e+00 0.000000e+00
1
Step 403000
Ar 5.378998e-01 0.000000e+00 0.000000e+00
1
Step 404000
Ar 3.446891e-01 0.000000e+00 0.000000e+00
1
Step 405000
Ar 4.312994e-01 0.000000e+00 0.000000e+00
1
Step 406000
Ar 3.559170e-01 0.000000e+00 0.000000e+00
1
Step 407000
Ar 4.411043e-01 0.000000e+00 0.000000e+00
1
Step 408000
Ar 3.440301e-01 0.000000e+00 0.000000e+00
1
Step 409000
Ar 3.710348e-01 0.000000e+00 0.000000e+00
1
Step 410000
Ar 3.677719e-01 0.000000e+00 0.000000e+00
1
Step 411000
Ar 3.736502e-01 0.000000e+00 0.000000e+00
1
Step 412000
Ar 3.558329e-01 0.000000e+00 0.000000e+00
1
Step 413000
Ar 3.619145e-01 0.000000e+00 0.000000e+00
1
Step 414000
Ar 4.516468e-01 0.000000e+00 0.000000e+00
1
Step 415000
Ar 4.214032e-01 0.000000e+00 0.000000e+00
1
Step 416000
Ar 4.711703e-01 0.000000e+00 0.000000e+00
1
Step 417000
Ar 4.253105e-01 0.000000e+00 0.000000e+00
1
Step 418000
Ar 1.632032e-01 0.000000e+00 0.000000e+00
1
Step 419000
Ar 1.995147e-01 0.000000e+00 0.000000e+00
1
Step 420000
Ar 2.428689e-01 0.000000e+00 0.000000e+00
1
Step 421000
Ar 1.287478e-01 0.000000e+00 0.000000e+00
1
Step 422000
Ar -3.531045e-02 0.000000e+00 0.000000e+00
1
Step 423000
Ar 1.806638e-01 0.000000e+00 0.000000e+00
1
Step 424000
Ar 1.012753e-01 0.000000e+00 0.000000e+00
1
Step 425000
Ar -2.773343e-02 0.000000e+00 0.000000e+00
1
Step 426000
Ar -5.489036e-01 0.000000e+00 0.000000e+00
1
Step 427000
Ar -6.277304e-01 0.000000e+00 0.000000e+00
1
Step 428000
Ar -6.061279e-01 0.000000e+00 0.000000e+00
1
Step 429000
Ar -6.517731e-01 0.000000e+00 0.000000e+00
1
Step 430000
Ar -6.323720e-01 0.000000e+00 0.000000e+00
1
Step 431000
Ar -6.249858e-01 0.000000e+00 0.000000e+00
1
Step 432000
Ar -5.282855e-01 0.000000e+00 0.000000e+00
1
Step 433000
Ar -6.619327e-01 0.000000e+00 0.000000e+00
1
Step 434000
Ar -6.464843e-01 0.000000e+00 0.000000e+00
1
Step 435000
Ar -6.425421e-01 0.000000e+00 0.000000e+00
1
Step 436000
Ar -7.358516e-01 0.000000e+00 0.000000e+00
1
Step 437000
Ar -7.309819e-01 0.000000e+00 0.000000e+00
1
Step 438000
Ar -7.324795e-01 0.000000e+00 0.000000e+00
1
Step 439000
Ar -6.036386e-01 0.000000e+00 0.000000e+00
1
Step 440000
Ar -1.291223e-01 0.000000e+00 0.000000e+00
1
Step 441000
Ar -2.489834e-01 0.000000e+00 0.000000e+00
1
Step 442000
Ar -3.941241e-01 0.000000e+00 0.000000e+00
1
Step 443000
Ar -3.845732e-01 0.000000e+00 0.000000e+00
1
Step 444000
Ar -4.018059e-01 0.000000e+00 0.000000e+00
1
Step 445000
Ar -1.934146e-01 0.000000e+00 0.000000e+00
1
Step 446000
Ar -1.793684e-01 0.000000e+00 0.000000e+00
1
Step 447000
Ar -2.952921e-01 0.000000e+00 0.000000e+00
1
Step 448000
Ar -3.144479e-01 0.000000e+00 0.000000e+00
1
Step 449000
Ar -2.180992e-01 0.000000e+00 0.000000e+00
1
Step 450000
Ar -2.275175e-01 0.000000e+00 0.000000e+00
1
Step 451000
Ar -2.329893e-01 0.000000e+00 0.000000e+00
1
Step 452000
Ar -2.795207e-01 0.000000e+00 0.000000e+00
1
Step 453000
Ar -2.609918e-01 0.000000e+00 0.000000e+00
1
Step 454000
Ar -1.610964e-01 0.000000e+00 0.000000e+00
1
Step 455000
Ar -1.646630e-01 0.000000e+00 0.000000e+00
1
Step 456000
Ar 3.811886e-01 0.000000e+00 0.000000e+00
1
Step 457000
Ar 6.622226e-01 0.000000e+00 0.000000e+00
1
Step 458000
Ar 7.443686e-01 0.000000e+00 0.000000e+00
1
Step 459000
Ar 8.055872e-01 0.000000e+00 0.000000e+00
1
Step 460000
Ar 8.008328e-01 0.000000e+00 0.000000e+00
1
Step 461000
Ar 7.666463e-01 0.000000e+00 0.000000e+00
1
Step 462000
Ar 7.564204e-01 0.000000e+00 0.000000e+00
1
Step 463000
Ar 7.396319e-01 0.000000e+00 0.000000e+00
1
Step 464000
Ar 6.474285e-01 0.000000e+00 0.000000e+00
1
Step 465000
Ar 6.511285e-01 0.000000e+00 0.000000e+00
1
Step 466000
Ar 6.496165e-01 0.000000e+00 0.000000e+00
1
Step 467000
Ar 8.292858e-01 0.000000e+00 0.000000e+00
1
Step 468000
Ar 9.110729e-01 0.000000e+00 0.000000e+00
1
Step 469000
Ar 9.158927e-01 0.000000e+00 0.000000e+00
1
Step 470000
Ar 9.107665e-01 0.000000e+00 0.000000e+00
1
Step 471000
Ar 8.695231e-01 0.000000e+00 0.000000e+00
1
Step 472000
Ar 7.332841e-01 0.000000e+00 0.000000e+00
1
Step 473000
Ar 5.955783e-01 0.000000e+00 0.000000e+00
1
Step 474000
Ar 1.390137e-01 0.000000e+00 0.000000e+00
1
Step 475000
Ar 3.925134e-01 0.000000e+00 0.000000e+00
1
Step 476000
Ar 3.170402e-01 0.000000e+00 0.000000e+00
1
Step 477000
Ar 3.119292e-01 0.000000e+00 0.000000e+00
1
Step 478000
Ar 3.253067e-02 0.000000e+00 0.000000e+00
1
Step 479000
Ar 4.539704e-02 0.000000e+00 0.000000e+00
1
Step 480000
Ar 1.063639e-01 0.000000e+00 0.000000e+00
1
Step 481000
Ar 1.207023e-01 0.000000e+00 0.000000e+00
1
Step 482000
Ar 1.298095e-01 0.000000e+00 0.000000e+00
1
Step 483000
Ar 3.164761e-02 0.000000e+00 0.000000e+00
1
Step 484000
Ar 1.174688e-01 0.000000e+00 0.000000e+00
1
Step 485000
Ar 8.908340e-02 0.000000e+00 0.000000e+00
1
Step 486000
Ar 3.319656e-01 0.000000e+00 0.000000e+00
1
Step 487000
Ar 2.172298e-01 0.000000e+00 0.000000e+00
1
Step 488000
Ar 1.963729e-01 0.000000e+00 0.000000e+00
1
Step 489000
Ar 1.868960e-01 0.000000e+00 0.000000e+00
1
Step 490000
Ar 2.068332e-01 0.000000e+00 0.000000e+00
1
Step 491000
Ar 2.018264e-01 0.000000e+00 0.000000e+00
1
Step 492000
Ar 1.878703e-01 0.000000e+00 0.000000e+00
1
Step 493000
Ar 1.282104e-01 0.000000e+00 0.000000e+00
1
Step 494000
Ar 1.889743e-01 0.000000e+00 0.000000e+00
1
Step 495000
Ar 1.525451e-01 0.000000e+00 0.000000e+00
1
Step 496000
Ar 1.581499e-01 0.000000e+00 0.000000e+00
1
Step 497000
Ar 1.587414e-01 0.000000e+00 0.000000e+00
1
Step 498000
Ar 1.800262e-01 0.000000e+00 0.000000e+00
1
Step 499000
Ar 1.651088e-01 0.000000e+00 0.000000e+00
1
Step 500000
Ar 1.252170e-01 0.000000e+00 0.000000e+00
1
Step 501000
Ar 6.179282e-02 0.000000e+00 0.000000e+00
1
Step 502000
Ar 1.331005e-01 0.000000e+00 0.000000e+00
1
Step 503000
Ar 4.631295e-02 0.000000e+00 0.000000e+00
1
Step 504000
Ar 5.629420e-01 0.000000e+00 0.000000e+00
1
Step 505000
Ar 3.942701e-01 0.000000e+00 0.000000e+00
1
Step 506000
Ar 4.850031e-01 0.000000e+00 0.000000e+00
1
Step 507000
Ar 4.845322e-01 0.000000e+00 0.000000e+00
1
Step 508000
Ar 2.705144e-01 0.000000e+00 0.000000e+00
1
Step 509000
Ar 3.027473e-01 0.000000e+00 0.000000e+00
1
Step 510000
Ar 3.471541e-01 0.000000e+00 0.000000e+00
1
Step 511000
Ar 3.352353e-01 0.000000e+00 0.000000e+00
1
Step 512000
Ar 1.643972e-01 0.000000e+00 0.000000e+00
1
Step 513000
Ar 1.038170e-01 0.000000e+00 0.000000e+00
1
Step 514000
Ar 5.927619e-02 0.000000e+00 0.000000e+00
1
Step 515000
Ar 3.532431e-02 0.000000e+00 0.000000e+00
1
Step 516000
Ar 3.771399e-02 0.000000e+00 0.000000e+00
1
Step 517000
Ar -7.137734e-02 0.000000e+00 0.000000e+00
1
Step 518000
Ar -4.564098e-02 0.000000e+00 0.000000e+00
1
Step 519000
Ar -5.835882e-02 0.000000e+00 0.000000e+00
1
Step 520000
Ar -4.799236e-02 0.000000e+00 0.000000e+00
1
Step 521000
Ar -3.132081e-02 0.000000e+00 0.000000e+00
1
Step 522000
Ar -4.309164e-02 0.000000e+00 0.000000e+00
1
Step 523000
Ar -4.750862e-01 0.000000e+00 0.000000e+00
1
Step 524000
Ar -4.758093e-01 0.000000e+00 0.000000e+00
1
Step 525000
Ar -5.630415e-01 0.000000e+00 0.000000e+00
1
Step 526000
Ar -5.337330e-01 0.000000e+00 0.000000e+00
1
Step 527000
Ar -4.511567e-01 0.000000e+00 0.000000e+00
1
Step 528000
Ar -3.923138e-01 0.000000e+00 0.000000e+00
1
Step 529000
Ar -6.448398e-01 0.000000e+00 0.000000e+00
1
Step 530000
Ar -6.417487e-01 0.000000e+00 0.000000e+00
1
Step 531000
Ar -3.007090e-01 0.000000e+00 0.000000e+00
1
Step 532000
Ar -4.036361e-01 0.000000e+00 0.000000e+00
1
Step 533000
Ar -3.794722e-01 0.000000e+00 0.000000e+00
1
Step 534000
Ar -4.162233e-01 0.000000e+00 0.000000e+00
1
Step 535000
Ar -4.091875e-01 0.000000e+00 0.000000e+00
1
Step 536000
Ar -4.139240e-01 0.000000e+00 0.000000e+00
1
Step 537000
Ar -6.559250e-01 0.000000e+00 0.000000e+00
1
Step 538000
Ar -3.874981e-01 0.000000e+00 0.000000e+00
1
Step 539000
Ar -3.900246e-01 0.000000e+00 0.000000e+00
1
Step 540000
Ar -3.707139e-01 0.000000e+00 0.000000e+00
1
Step 541000
Ar -3.595736e-01 0.000000e+00 0.000000e+00
1
Step 542000
Ar -3.569046e-01 0.000000e+00 0.000000e+00
1
Step 543000
Ar -2.991411e-01 0.000000e+00 0.000000e+00
1
Step 544000
Ar -1.414252e-01 0.000000e+00 0.000000e+00
1
Step 545000
Ar -1.463417e-01 0.000000e+00 0.000000e+00
1
Step 546000
Ar -1.998490e-01 0.000000e+00 0.000000e+00
1
Step 547000
Ar -1.800748e-01 0.000000e+00 0.000000e+00
1
Step 548000
Ar -3.305536e-01 0.000000e+00 0.000000e+00
1
Step 549000
Ar -3.536334e-01 0.000000e+00 0.000000e+00
1
Step 550000
Ar -2.978866e-01 0.000000e+00 0.000000e+00
1
Step 551000
Ar -3.128454e-01 0.000000e+00 0.000000e+00
1
Step 552000
Ar -2.008201e-01 0.000000e+00 0.000000e+00
1
Step 553000
Ar -1.927663e-01 0.000000e+00 0.000000e+00
1
Step 554000
Ar 2.053576e-01 0.000000e+00 0.000000e+00
1
Step 555000
Ar 2.319340e-01 0.000000e+00 0.000000e+00
1
Step 556000
Ar 2.108159e-01 0.000000e+00 0.000000e+00
1
Step 557000
Ar 5.323922e-01 0.000000e+00 0.000000e+00
1
Step 558000
Ar 1.597453e-01 0.000000e+00 0.000000e+00
1
Step 559000
Ar 2.457275e-01 0.000000e+00 0.000000e+00
1
Step 560000
Ar 2.098238e-01 0.000000e+00 0.000000e+00
1
Step 561000
Ar 2.032151e-01 0.000000e+00 0.000000e+00
1
Step 562000
Ar -2.402283e-02 0.000000e+00 0.000000e+00
1
Step 563000
Ar -4.039263e-02 0.000000e+00 0.000000e+00
1
Step 564000
Ar -1.080569e-01 0.000000e+00 0.000000e+00
1
Step 565000
Ar -8.219260e-02 0.000000e+00 0.000000e+00
1
Step 566000
Ar -7.401375e-02 0.000000e+00 0.000000e+00
1
Step 567000
Ar 6.599030e-02 0.000000e+00 0.000000e+00
1
Step 568000
Ar 7.236089e-02 0.000000e+00 0.000000e+00
1
Step 569000
Ar -3.082586e-03 0.000000e+00 0.000000e+00
1
Step 570000
Ar 3.400903e-01 0.000000e+00 0.000000e+00
1
Step 571000
Ar 3.055547e-01 0.000000e+00 0.000000e+00
1
Step 572000
Ar 2.918412e-01 0.000000e+00 0.000000e+00
1
Step 573000
Ar 3.038461e-01 0.000000e+00 0.000000e+00
1
Step 574000
Ar 7.401454e-01 0.000000e+00 0.000000e+00
1
Step 575000
Ar 7.416936e-01 0.000000e+00 0.000000e+00
1
Step 576000
Ar 6.584790e-01 0.000000e+00 0.000000e+00
1
Step 577000
Ar 6.404432e-01 0.000000e+00 0.000000e+00
1
Step 578000
Ar 8.204012e-01 0.000000e+00 0.000000e+00
1
Step 579000
Ar 9.723527e-01 0.000000e+00 0.000000e+00
1
Step 580000
Ar 1.018354e+00 0.000000e+00 0.000000e+00
1
Step 581000
Ar 1.042253e+00 0.000000e+00 0.000000e+00
1
Step 582000
Ar 8.711225e-01 0.000000e+00 0.000000e+00
1
Step 583000
Ar 8.721443e-01 0.000000e+00 0.000000e+00
1
Step 584000
Ar 7.123629e-01 0.000000e+00 0.000000e+00
1
Step 585000
Ar 6.529863e-01 0.000000e+00 0.000000e+00
1
Step 586000
Ar 6.538670e-01 0.000000e+00 0.000000e+00
1
Step 587000
Ar 6.562301e-01 0.000000e+00 0.000000e+00
1
Step 588000
Ar 6.557157e-01 0.000000e+00 0.000000e+00
1
Step 589000
Ar 8.474120e-01 0.000000e+00 0.000000e+00
1
Step 590000
Ar 8.517082e-01 0.000000e+00 0.000000e+00
1
Step 591000
Ar 8.428736e-01 0.000000e+00 0.000000e+00
1
Step 592000
Ar 7.955923e-01 0.000000e+00 0.000000e+00
1
Step 593000
Ar 1.222606e+00 0.000000e+00 0.000000e+00
1
Step 594000
Ar 1.036806e+00 0.000000e+00 0.000000e+00
1
Step 595000
Ar 1.093402e+00 0.000000e+00 0.000000e+00
1
Step 596000
Ar 1.135080e+00 0.000000e+00 0.000000e+00
1
Step 597000
Ar 1.109986e+00 0.000000e+00 0.000000e+00
1
Step 598000
Ar 1.073348e+00 0.000000e+00 0.000000e+00
1
Step 599000
Ar 1.255543e+00 0.000000e+00 0.000000e+00
1
Step 600000
Ar 1.201808e+00 0.000000e+00 0.000000e+00
1
Step 601000
Ar 1.222849e+00 0.000000e+00 0.000000e+00
1
Step 602000
Ar 1.218191e+00 0.000000e+00 0.000000e+00
1
Step 603000
Ar 1.205796e+00 0.000000e+00 0.000000e+00
1
Step 604000
Ar 1.433632e+00 0.000000e+00 0.000000e+00
1
Step 605000
Ar 1.441697e+00 0.000000e+00 0.000000e+00
1
Step 606000
Ar 1.409695e+00 0.000000e+00 0.000000e+00
1
Step 607000
Ar 1.450219e+00 0.000000e+00 0.000000e+00
1
Step 608000
Ar 1.196506e+00 0.000000e+00 0.000000e+00
1
Step 609000
Ar 1.158266e+00 0.000000e+00 0.000000e+00
1
Step 610000
Ar 1.157376e+00 0.000000e+00 0.000000e+00
1
Step 611000
Ar 9.297095e-01 0.000000e+00 0.000000e+00
1
Step 612000
Ar 9.856971e-01 0.000000e+00 0.000000e+00
1
Step 613000
Ar 9.833565e-01 0.000000e+00 0.000000e+00
1
Step 614000
Ar 9.827461e-01 0.000000e+00 0.000000e+00
1
Step 615000
Ar 1.058490e+00 0.000000e+00 0.000000e+00
1
Step 616000
Ar 1.038323e+00 0.000000e+00 0.000000e+00
1
Step 617000
Ar 9.305429e-01 0.000000e+00 0.000000e+00
1
Step 618000
Ar 1.437008e+00 0.000000e+00 0.000000e+00
1
Step 619000
Ar 1.370026e+00 0.000000e+00 0.000000e+00
1
Step 620000
Ar 1.376678e+00 0.000000e+00 0.000000e+00
1
Step 621000
Ar 1.313954e+00 0.000000e+00 0.000000e+00
1
Step 622000
Ar 1.377231e+00 0.000000e+00 0.000000e+00
1
Step 623000
Ar 1.210647e+00 0.000000e+00 0.000000e+00
1
Step 624000
Ar 1.253072e+00 0.000000e+00 0.000000e+00
1
Step 625000
Ar 1.522752e+00 0.000000e+00 0.000000e+00
1
Step 626000
Ar 1.178576e+00 0.000000e+00 0.000000e+00
1
Step 627000
Ar 1.185295e+00 0.000000e+00 0.000000e+00
1
Step 628000
Ar 1.503594e+00 0.000000e+00 0.000000e+00
1
Step 629000
Ar 1.436698e+00 0.000000e+00 0.000000e+00
1
Step 630000
Ar 1.499880e+00 0.000000e+00 0.000000e+00
1
Step 631000
Ar 1.348607e+00 0.000000e+00 0.000000e+00
1
Step 632000
Ar 1.316583e+00 0.000000e+00 0.000000e+00
1
Step 633000
Ar 1.555261e+00 0.000000e+00 0.000000e+00
1
Step 634000
Ar 1.526508e+00 0.000000e+00 0.000000e+00
1
Step 635000
Ar 1.274787e+00 0.000000e+00 0.000000e+00
1
Step 636000
Ar 1.227136e+00 0.000000e+00 0.000000e+00
1
Step 637000
Ar 1.434975e+00 0.000000e+00 0.000000e+00
1
Step 638000
Ar 1.397411e+00 0.000000e+00 0.000000e+00
1
Step 639000
Ar 1.378114e+00 0.000000e+00 0.000000e+00
1
Step 640000
Ar 1.472787e+00 0.000000e+00 0.000000e+00
1
Step 641000
Ar 1.399630e+00 0.000000e+00 0.000000e+00
1
Step 642000
Ar 1.453450e+00 0.000000e+00 0.000000e+00
1
Step 643000
Ar 1.482429e+00 0.000000e+00 0.000000e+00
1
Step 644000
Ar 1.424674e+00 0.000000e+00 0.000000e+00
1
Step 645000
Ar 1.401281e+00 0.000000e+00 0.000000e+00
1
Step 646000
Ar 1.397929e+00 0.000000e+00 0.000000e+00
1
Step 647000
Ar 1.261099e+00 0.000000e+00 0.000000e+00
1
Step 648000
Ar 1.288459e+00 0.000000e+00 0.000000e+00
1
Step 649000
Ar 1.303524e+00 0.000000e+00 0.000000e+00
1
Step 650000
Ar 1.221278e+00 0.000000e+00 0.000000e+00
1
Step 651000