1
Step 120000
Ar 9.806563e-01 0.000000e+00 0.000000e+00
1
Step 121000
Ar 9.957372e-01 0.000000e+00 0.000000e+00
1
Step 122000
Ar 9.955936e-01 0.000000e+00 0.000000e+00
1
Step 123000
Ar 9.820620e-01 0.000000e+00 0.000000e+00
1
Step 124000
Ar 1.002737e+00 0.000000e+00 0.000000e+00
1
Step 125000
Ar 1.000673e+00 0.000000e+00 0.000000e+00
1
Step 126000
Ar 1.019807e+00 0.000000e+00 0.000000e+00
1
Step 127000
Ar 1.014989e+00 0.000000e+00 0.000000e+00
1
Step 128000
Ar 1.011650e+00 0.000000e+00 0.000000e+00
1
Step 129000
Ar 1.012680e+00 0.000000e+00 0.000000e+00
1
Step 130000
Ar 1.021195e+00 0.000000e+00 0.000000e+00
1
Step 131000
Ar 9.856162e-01 0.000000e+00 0.000000e+00
1
Step 132000
Ar 9.887219e-01 0.000000e+00 0.000000e+00
1
Step 133000
Ar 9.702175e-01 0.000000e+00 0.000000e+00
1
Step 134000
Ar 9.796384e-01 0.000000e+00 0.000000e+00
1
Step 135000
Ar 9.790015e-01 0.000000e+00 0.000000e+00
1
Step 136000
Ar 1.034585e+00 0.000000e+00 0.000000e+00
1
Step 137000
Ar 1.039077e+00 0.000000e+00 0.000000e+00
1
Step 138000
Ar 1.032586e+00 0.000000e+00 0.000000e+00
1
Step 139000
Ar 1.031142e+00 0.000000e+00 0.000000e+00
1
Step 140000
Ar 1.032444e+00 0.000000e+00 0.000000e+00
1
Step 141000
Ar 9.890452e-01 0.000000e+00 0.000000e+00
1
Step 142000
Ar 9.891098e-01 0.000000e+00 0.000000e+00
1
Step 143000
Ar 9.906111e-01 0.000000e+00 0.000000e+00
1
Step 144000
Ar 1.014455e+00 0.000000e+00 0.000000e+00
1
Step 145000
Ar 9.206388e-01 0.000000e+00 0.000000e+00
1
Step 146000
Ar 1.048186e+00 0.000000e+00 0.000000e+00
1
Step 147000
Ar 1.043355e+00 0.000000e+00 0.000000e+00
1
Step 148000
Ar 1.045084e+00 0.000000e+00 0.000000e+00
1
Step 149000
Ar 1.045871e+00 0.000000e+00 0.000000e+00
1
Step 150000
Ar 1.040755e+00 0.000000e+00 0.000000e+00
1
Step 151000
Ar 9.572424e-01 0.000000e+00 0.000000e+00
1
Step 152000
Ar 9.646046e-01 0.000000e+00 0.000000e+00
1
Step 153000
Ar 9.672275e-01 0.000000e+00 0.000000e+00
1
Step 154000
Ar 9.651953e-01 0.000000e+00 0.000000e+00
1
Step 155000
Ar 9.657768e-01 0.000000e+00 0.000000e+00
1
Step 156000
Ar 9.508126e-01 0.000000e+00 0.000000e+00
1
Step 157000
Ar 9.523548e-01 0.000000e+00 0.000000e+00
1
Step 158000
Ar 9.548909e-01 0.000000e+00 0.000000e+00
1
Step 159000
Ar 9.522860e-01 0.000000e+00 0.000000e+00
1
Step 160000
Ar 9.585451e-01 0.000000e+00 0.000000e+00
1
Step 161000
Ar 9.502300e-01 0.000000e+00 0.000000e+00
1
Step 162000
Ar 9.453608e-01 0.000000e+00 0.000000e+00
1
Step 163000
Ar 9.390195e-01 0.000000e+00 0.000000e+00
1
Step 164000
Ar 9.484060e-01 0.000000e+00 0.000000e+00
1
Step 165000
Ar 9.477758e-01 0.000000e+00 0.000000e+00
1
Step 166000
Ar 9.368273e-01 0.000000e+00 0.000000e+00
1
Step 167000
Ar 9.338103e-01 0.000000e+00 0.000000e+00
1
Step 168000
Ar 9.360669e-01 0.000000e+00 0.000000e+00
1
Step 169000
Ar 9.331077e-01 0.000000e+00 0.000000e+00
1
Step 170000
Ar 9.363386e-01 0.000000e+00 0.000000e+00
1
Step 171000
Ar 9.929409e-01 0.000000e+00 0.000000e+00
1
Step 172000
Ar 9.910461e-01 0.000000e+00 0.000000e+00
1
Step 173000
Ar 9.914268e-01 0.000000e+00 0.000000e+00
1
Step 174000
Ar 9.885462e-01 0.000000e+00 0.000000e+00
1
Step 175000
Ar 9.906066e-01 0.000000e+00 0.000000e+00
1
Step 176000
Ar 1.061712e+00 0.000000e+00 0.000000e+00
1
Step 177000
Ar 1.061295e+00 0.000000e+00 0.000000e+00
1
Step 178000
Ar 1.051692e+00 0.000000e+00 0.000000e+00
1
Step 179000
Ar 1.056372e+00 0.000000e+00 0.000000e+00
1
Step 180000
Ar 1.051684e+00 0.000000e+00 0.000000e+00
1
Step 181000
Ar 1.062206e+00 0.000000e+00 0.000000e+00
1
Step 182000
Ar 1.061015e+00 0.000000e+00 0.000000e+00
1
Step 183000
Ar 1.064651e+00 0.000000e+00 0.000000e+00
1
Step 184000
Ar 1.060166e+00 0.000000e+00 0.000000e+00
1
Step 185000
Ar 1.068929e+00 0.000000e+00 0.000000e+00
1
Step 186000
Ar 1.078686e+00 0.000000e+00 0.000000e+00
1
Step 187000
Ar 1.053550e+00 0.000000e+00 0.000000e+00
1
Step 188000
Ar 1.010949e+00 0.000000e+00 0.000000e+00
1
Step 189000
Ar 1.013002e+00 0.000000e+00 0.000000e+00
1
Step 190000
Ar 1.074497e+00 0.000000e+00 0.000000e+00
1
Step 191000
Ar 9.103761e-01 0.000000e+00 0.000000e+00
1
Step 192000
Ar 1.028307e+00 0.000000e+00 0.000000e+00
1
Step 193000
Ar 1.011476e+00 0.000000e+00 0.000000e+00
1
Step 194000
Ar 1.013700e+00 0.000000e+00 0.000000e+00
1
Step 195000
Ar 1.013891e+00 0.000000e+00 0.000000e+00
1
Step 196000
Ar 9.860230e-01 0.000000e+00 0.000000e+00
1
Step 197000
Ar 1.056922e+00 0.000000e+00 0.000000e+00
1
Step 198000
Ar 9.736123e-01 0.000000e+00 0.000000e+00
1
Step 199000
Ar 9.875316e-01 0.000000e+00 0.000000e+00
1
Step 200000
Ar 9.985350e-01 0.000000e+00 0.000000e+00
1
Step 201000
Ar 7.588681e-01 0.000000e+00 0.000000e+00
1
Step 202000
Ar 9.752179e-01 0.000000e+00 0.000000e+00
1
Step 203000
Ar 9.700192e-01 0.000000e+00 0.000000e+00
1
Step 204000
Ar 1.100556e+00 0.000000e+00 0.000000e+00
1
Step 205000
Ar 1.081352e+00 0.000000e+00 0.000000e+00
1
Step 206000
Ar 9.678707e-01 0.000000e+00 0.000000e+00
1
Step 207000
Ar 9.724554e-01 0.000000e+00 0.000000e+00
1
Step 208000
Ar 1.056818e+00 0.000000e+00 0.000000e+00
1
Step 209000
Ar 1.014747e+00 0.000000e+00 0.000000e+00
1
Step 210000
Ar 9.079015e-01 0.000000e+00 0.000000e+00
1
Step 211000
Ar 9.913642e-01 0.000000e+00 0.000000e+00
1
Step 212000
Ar 1.091261e+00 0.000000e+00 0.000000e+00
1
Step 213000
Ar 1.091071e+00 0.000000e+00 0.000000e+00
1
Step 214000
Ar 1.092388e+00 0.000000e+00 0.000000e+00
1
Step 215000
Ar 1.090808e+00 0.000000e+00 0.000000e+00
1
Step 216000
Ar 1.097749e+00 0.000000e+00 0.000000e+00
1
Step 217000
Ar 1.099290e+00 0.000000e+00 0.000000e+00
1
Step 218000
Ar 8.975513e-01 0.000000e+00 0.000000e+00
1
Step 219000
Ar 8.991545e-01 0.000000e+00 0.000000e+00
1
Step 220000
Ar 9.011933e-01 0.000000e+00 0.000000e+00
1
Step 221000
Ar 1.101039e+00 0.000000e+00 0.000000e+00
1
Step 222000
Ar 1.099238e+00 0.000000e+00 0.000000e+00
1
Step 223000
Ar 1.101865e+00 0.000000e+00 0.000000e+00
1
Step 224000
Ar 1.099013e+00 0.000000e+00 0.000000e+00
1
Step 225000
Ar 1.096560e+00 0.000000e+00 0.000000e+00
1
Step 226000
Ar 1.104561e+00 0.000000e+00 0.000000e+00
1
Step 227000
Ar 1.107837e+00 0.000000e+00 0.000000e+00
1
Step 228000
Ar 1.104007e+00 0.000000e+00 0.000000e+00
1
Step 229000
Ar 1.104488e+00 0.000000e+00 0.000000e+00
1
Step 230000
Ar 1.102423e+00 0.000000e+00 0.000000e+00
1
Step 231000
Ar 1.111714e+00 0.000000e+00 0.000000e+00
1
Step 232000
Ar 1.111130e+00 0.000000e+00 0.000000e+00
1
Step 233000
Ar 1.113906e+00 0.000000e+00 0.000000e+00
1
Step 234000
Ar 1.110817e+00 0.000000e+00 0.000000e+00
1
Step 235000
Ar 1.113983e+00 0.000000e+00 0.000000e+00
1
Step 236000
Ar 9.298929e-01 0.000000e+00 0.000000e+00
1
Step 237000
Ar 9.677292e-01 0.000000e+00 0.000000e+00
1
Step 238000
Ar 9.653838e-01 0.000000e+00 0.000000e+00
1
Step 239000
Ar 8.893563e-01 0.000000e+00 0.000000e+00
1
Step 240000
Ar 8.943999e-01 0.000000e+00 0.000000e+00
1
Step 241000
Ar 8.863087e-01 0.000000e+00 0.000000e+00
1
Step 242000
Ar 8.832723e-01 0.000000e+00 0.000000e+00
1
Step 243000
Ar 8.792720e-01 0.000000e+00 0.000000e+00
1
Step 244000
Ar 8.850240e-01 0.000000e+00 0.000000e+00
1
Step 245000
Ar 8.785951e-01 0.000000e+00 0.000000e+00
1
Step 246000
Ar 9.512668e-01 0.000000e+00 0.000000e+00
1
Step 247000
Ar 9.897072e-01 0.000000e+00 0.000000e+00
1
Step 248000
Ar 8.725581e-01 0.000000e+00 0.000000e+00
1
Step 249000
Ar 1.024272e+00 0.000000e+00 0.000000e+00
1
Step 250000
Ar 9.772096e-01 0.000000e+00 0.000000e+00
1
Step 251000
Ar 1.061286e+00 0.000000e+00 0.000000e+00
1
Step 252000
Ar 1.061727e+00 0.000000e+00 0.000000e+00
1
Step 253000
Ar 1.025401e+00 0.000000e+00 0.000000e+00
1
Step 254000
Ar 1.027914e+00 0.000000e+00 0.000000e+00
1
Step 255000
Ar 1.011915e+00 0.000000e+00 0.000000e+00
1
Step 256000
Ar 9.955525e-01 0.000000e+00 0.000000e+00
1
Step 257000
Ar 9.710868e-01 0.000000e+00 0.000000e+00
1
Step 258000
Ar 1.010947e+00 0.000000e+00 0.000000e+00
1
Step 259000
Ar 1.026954e+00 0.000000e+00 0.000000e+00
1
Step 260000
Ar 9.991194e-01 0.000000e+00 0.000000e+00
1
Step 261000
Ar 9.715190e-01 0.000000e+00 0.000000e+00
1
Step 262000
Ar 7.592818e-01 0.000000e+00 0.000000e+00
1
Step 263000
Ar 7.457751e-01 0.000000e+00 0.000000e+00
1
Step 264000
Ar 9.530453e-01 0.000000e+00 0.000000e+00
1
Step 265000
Ar 9.519079e-01 0.000000e+00 0.000000e+00
1
Step 266000
Ar 1.026506e+00 0.000000e+00 0.000000e+00
1
Step 267000
Ar 1.078390e+00 0.000000e+00 0.000000e+00
1
Step 268000
Ar 1.005394e+00 0.000000e+00 0.000000e+00
1
Step 269000
Ar 9.830567e-01 0.000000e+00 0.000000e+00
1
Step 270000
Ar 8.306699e-01 0.000000e+00 0.000000e+00
1
Step 271000
Ar 8.204471e-01 0.000000e+00 0.000000e+00
1
Step 272000
Ar 1.030268e+00 0.000000e+00 0.000000e+00
1
Step 273000
Ar 1.027909e+00 0.000000e+00 0.000000e+00
1
Step 274000
Ar 1.031219e+00 0.000000e+00 0.000000e+00
1
Step 275000
Ar 9.237218e-01 0.000000e+00 0.000000e+00
1
Step 276000
Ar 9.684754e-01 0.000000e+00 0.000000e+00
1
Step 277000
Ar 8.234739e-01 0.000000e+00 0.000000e+00
1
Step 278000
Ar 1.104318e+00 0.000000e+00 0.000000e+00
1
Step 279000
Ar 1.031034e+00 0.000000e+00 0.000000e+00
1
Step 280000
Ar 9.508062e-01 0.000000e+00 0.000000e+00
1
Step 281000
Ar 1.062897e+00 0.000000e+00 0.000000e+00
1
Step 282000
Ar 1.024535e+00 0.000000e+00 0.000000e+00
1
Step 283000
Ar 1.031117e+00 0.000000e+00 0.000000e+00
1
Step 284000
Ar 1.040566e+00 0.000000e+00 0.000000e+00
1
Step 285000
Ar 7.777687e-01 0.000000e+00 0.000000e+00
1
Step 286000
Ar 1.050945e+00 0.000000e+00 0.000000e+00
1
Step 287000
Ar 1.027570e+00 0.000000e+00 0.000000e+00
1
Step 288000
Ar 9.979856e-01 0.000000e+00 0.000000e+00
1
Step 289000
Ar 9.354523e-01 0.000000e+00 0.000000e+00
1
Step 290000
Ar 1.026521e+00 0.000000e+00 0.000000e+00
1
Step 291000
Ar 1.066227e+00 0.000000e+00 0.000000e+00
1
Step 292000
Ar 1.043235e+00 0.000000e+00 0.000000e+00
1
Step 293000
Ar 8.766106e-01 0.000000e+00 0.000000e+00
1
Step 294000
Ar 1.002059e+00 0.000000e+00 0.000000e+00
1
Step 295000
Ar 1.060750e+00 0.000000e+00 0.000000e+00
1
Step 296000
Ar 8.018866e-01 0.000000e+00 0.000000e+00
1
Step 297000
Ar 9.144647e-01 0.000000e+00 0.000000e+00
1
Step 298000
Ar 9.370257e-01 0.000000e+00 0.000000e+00
1
Step 299000
Ar 8.917348e-01 0.000000e+00 0.000000e+00
1
Step 300000
Ar 1.042450e+00 0.000000e+00 0.000000e+00
1
Step 301000
Ar 1.104072e+00 0.000000e+00 0.000000e+00
1
Step 302000
Ar 1.154243e+00 0.000000e+00 0.000000e+00
1
Step 303000
Ar 8.983857e-01 0.000000e+00 0.000000e+00
1
Step 304000
Ar 8.720794e-01 0.000000e+00 0.000000e+00
1
Step 305000
Ar 8.703232e-01 0.000000e+00 0.000000e+00
1
Step 306000
Ar 8.573359e-01 0.000000e+00 0.000000e+00
1
Step 307000
Ar 8.593245e-01 0.000000e+00 0.000000e+00
1
Step 308000
Ar 8.599398e-01 0.000000e+00 0.000000e+00
1
Step 309000
Ar 8.603627e-01 0.000000e+00 0.000000e+00
1
Step 310000
Ar 8.613699e-01 0.000000e+00 0.000000e+00
1
Step 311000
Ar 1.259705e+00 0.000000e+00 0.000000e+00
1
Step 312000
Ar 8.510365e-01 0.000000e+00 0.000000e+00
1
Step 313000
Ar 8.501248e-01 0.000000e+00 0.000000e+00
1
Step 314000
Ar 8.494923e-01 0.000000e+00 0.000000e+00
1
Step 315000
Ar 8.512427e-01 0.000000e+00 0.000000e+00
1
Step 316000
Ar 8.528301e-01 0.000000e+00 0.000000e+00
1
Step 317000
Ar 8.901327e-01 0.000000e+00 0.000000e+00
1
Step 318000
Ar 1.056126e+00 0.000000e+00 0.000000e+00
1
Step 319000
Ar 1.055888e+00 0.000000e+00 0.000000e+00
1
Step 320000
Ar 1.056067e+00 0.000000e+00 0.000000e+00
1
Step 321000
Ar 9.934873e-01 0.000000e+00 0.000000e+00
1
Step 322000
Ar 9.349983e-01 0.000000e+00 0.000000e+00
1
Step 323000
Ar 9.094391e-01 0.000000e+00 0.000000e+00
1
Step 324000
Ar 8.845554e-01 0.000000e+00 0.000000e+00
1
Step 325000
Ar 9.854003e-01 0.000000e+00 0.000000e+00
1
Step 326000
Ar 9.956682e-01 0.000000e+00 0.000000e+00
1
Step 327000
Ar 1.092229e+00 0.000000e+00 0.000000e+00
1
Step 328000
Ar 9.940609e-01 0.000000e+00 0.000000e+00
1
Step 329000
Ar 8.537924e-01 0.000000e+00 0.000000e+00
1
Step 330000
Ar 6.795980e-01 0.000000e+00 0.000000e+00
1
Step 331000
Ar 1.082203e+00 0.000000e+00 0.000000e+00
1
Step 332000
Ar 9.732566e-01 0.000000e+00 0.000000e+00
1
Step 333000
Ar 9.891360e-01 0.000000e+00 0.000000e+00
1
Step 334000
Ar 9.869626e-01 0.000000e+00 0.000000e+00
1
Step 335000
Ar 1.119449e+00 0.000000e+00 0.000000e+00
1
Step 336000
Ar 9.897393e-01 0.000000e+00 0.000000e+00
1
Step 337000
Ar 9.092400e-01 0.000000e+00 0.000000e+00
1
Step 338000
Ar 1.217645e+00 0.000000e+00 0.000000e+00
1
Step 339000
Ar 1.104094e+00 0.000000e+00 0.000000e+00
1
Step 340000
Ar 1.087191e+00 0.000000e+00 0.000000e+00
1
Step 341000
Ar 1.125309e+00 0.000000e+00 0.000000e+00
1
Step 342000
Ar 1.133637e+00 0.000000e+00 0.000000e+00
1
Step 343000
Ar 1.124521e+00 0.000000e+00 0.000000e+00
1
Step 344000
Ar 1.124539e+00 0.000000e+00 0.000000e+00
1
Step 345000
Ar 1.125295e+00 0.000000e+00 0.000000e+00
1
Step 346000
Ar 8.564510e-01 0.000000e+00 0.000000e+00
1
Step 347000
Ar 9.639293e-01 0.000000e+00 0.000000e+00
1
Step 348000
Ar 1.064903e+00 0.000000e+00 0.000000e+00
1
Step 349000
Ar 1.065563e+00 0.000000e+00 0.000000e+00
1
Step 350000
Ar 1.065631e+00 0.000000e+00 0.000000e+00
1
Step 351000
Ar 1.008319e+00 0.000000e+00 0.000000e+00
1
Step 352000
Ar 6.898230e-01 0.000000e+00 0.000000e+00
1
Step 353000
Ar 1.195240e+00 0.000000e+00 0.000000e+00
1
Step 354000
Ar 1.072465e+00 0.000000e+00 0.000000e+00
1
Step 355000
Ar 1.068911e+00 0.000000e+00 0.000000e+00
1
Step 356000
Ar 1.157072e+00 0.000000e+00 0.000000e+00
1
Step 357000
Ar 9.240182e-01 0.000000e+00 0.000000e+00
1
Step 358000
Ar 1.027748e+00 0.000000e+00 0.000000e+00
1
Step 359000
Ar 8.243267e-01 0.000000e+00 0.000000e+00
1
Step 360000
Ar 8.220527e-01 0.000000e+00 0.000000e+00
1
Step 361000
Ar 8.147594e-01 0.000000e+00 0.000000e+00
1
Step 362000
Ar 8.123776e-01 0.000000e+00 0.000000e+00
1
Step 363000
Ar 9.673092e-01 0.000000e+00 0.000000e+00
1
Step 364000
Ar 7.501860e-01 0.000000e+00 0.000000e+00
1
Step 365000
Ar 5.400768e-01 0.000000e+00 0.000000e+00
1
Step 366000
Ar 9.596668e-01 0.000000e+00 0.000000e+00
1
Step 367000
Ar 9.402048e-01 0.000000e+00 0.000000e+00
1
Step 368000
Ar 7.991895e-01 0.000000e+00 0.000000e+00
1
Step 369000
Ar 1.025388e+00 0.000000e+00 0.000000e+00
1
Step 370000
Ar 8.959608e-01 0.000000e+00 0.000000e+00
1
Step 371000
Ar 1.121785e+00 0.000000e+00 0.000000e+00
1
Step 372000
Ar 1.134437e+00 0.000000e+00 0.000000e+00
1
Step 373000
Ar 1.132728e+00 0.000000e+00 0.000000e+00
1
Step 374000
Ar 1.135296e+00 0.000000e+00 0.000000e+00
1
Step 375000
Ar 1.137592e+00 0.000000e+00 0.000000e+00
1
Step 376000
Ar 9.026214e-01 0.000000e+00 0.000000e+00
1
Step 377000
Ar 9.872854e-01 0.000000e+00 0.000000e+00
1
Step 378000
Ar 9.827640e-01 0.000000e+00 0.000000e+00
1
Step 379000
Ar 9.846834e-01 0.000000e+00 0.000000e+00
1
Step 380000
Ar 9.928955e-01 0.000000e+00 0.000000e+00
1
Step 381000
Ar 8.838333e-01 0.000000e+00 0.000000e+00
1
Step 382000
Ar 9.883315e-01 0.000000e+00 0.000000e+00
1
Step 383000
Ar 1.005013e+00 0.000000e+00 0.000000e+00
1
Step 384000
Ar 9.746492e-01 0.000000e+00 0.000000e+00
1
Step 385000
Ar 1.224167e+00 0.000000e+00 0.000000e+00
1
Step 386000
Ar 8.174744e-01 0.000000e+00 0.000000e+00
1
Step 387000
Ar 8.092582e-01 0.000000e+00 0.000000e+00
1
Step 388000
Ar 1.231731e+00 0.000000e+00 0.000000e+00
1
Step 389000
Ar 1.154808e+00 0.000000e+00 0.000000e+00
1
Step 390000
Ar 1.046908e+00 0.000000e+00 0.000000e+00
1
Step 391000
Ar 1.065220e+00 0.000000e+00 0.000000e+00
1
Step 392000
Ar 1.156462e+00 0.000000e+00 0.000000e+00
1
Step 393000
Ar 1.032250e+00 0.000000e+00 0.000000e+00
1
Step 394000
Ar 9.116460e-01 0.000000e+00 0.000000e+00
1
Step 395000
Ar 8.334522e-01 0.000000e+00 0.000000e+00
1
Step 396000
Ar 8.090523e-01 0.000000e+00 0.000000e+00
1
Step 397000
Ar 8.094893e-01 0.000000e+00 0.000000e+00
1
Step 398000
Ar 8.129422e-01 0.000000e+00 0.000000e+00
1
Step 399000
Ar 8.146714e-01 0.000000e+00 0.000000e+00
1
Step 400000
Ar 8.128510e-01 0.000000e+00 0.000000e+00
1
Step 401000
Ar 8.131802e-01 0.000000e+00 0.000000e+00
1
Step 402000
Ar 7.674977e-01 0.000000e+00 0.000000e+00
1
Step 403000
Ar 1.031686e+00 0.000000e+00 0.000000e+00
1
Step 404000
Ar 9.802032e-01 0.000000e+00 0.000000e+00
1
Step 405000
Ar 1.016702e+00 0.000000e+00 0.000000e+00
1
Step 406000
Ar 1.083017e+00 0.000000e+00 0.000000e+00
1
Step 407000
Ar 1.040249e+00 0.000000e+00 0.000000e+00
1
Step 408000
Ar 1.168347e+00 0.000000e+00 0.000000e+00
1
Step 409000
Ar 1.024826e+00 0.000000e+00 0.000000e+00
1
Step 410000
Ar 9.277448e-01 0.000000e+00 0.000000e+00
1
Step 411000
Ar 8.064947e-01 0.000000e+00 0.000000e+00
1
Step 412000
Ar 9.118154e-01 0.000000e+00 0.000000e+00
1
Step 413000
Ar 1.073410e+00 0.000000e+00 0.000000e+00
1
Step 414000
Ar 1.028107e+00 0.000000e+00 0.000000e+00
1
Step 415000
Ar 1.032821e+00 0.000000e+00 0.000000e+00
1
Step 416000
Ar 1.026275e+00 0.000000e+00 0.000000e+00
1
Step 417000
Ar 9.980311e-01 0.000000e+00 0.000000e+00
1
Step 418000
Ar 1.152917e+00 0.000000e+00 0.000000e+00
1
Step 419000
Ar 1.024402e+00 0.000000e+00 0.000000e+00
1
Step 420000
Ar 1.106139e+00 0.000000e+00 0.000000e+00
1
Step 421000
Ar 7.678549e-01 0.000000e+00 0.000000e+00
1
Step 422000
Ar 6.432984e-01 0.000000e+00 0.000000e+00
1
Step 423000
Ar 1.195938e+00 0.000000e+00 0.000000e+00
1
Step 424000
Ar 6.311931e-01 0.000000e+00 0.000000e+00
1
Step 425000
Ar 1.212322e+00 0.000000e+00 0.000000e+00
1
Step 426000
Ar 1.131363e+00 0.000000e+00 0.000000e+00
1
Step 427000
Ar 1.012634e+00 0.000000e+00 0.000000e+00
1
Step 428000
Ar 9.504630e-01 0.000000e+00 0.000000e+00
1
Step 429000
Ar 6.664622e-01 0.000000e+00 0.000000e+00
1
Step 430000
Ar 7.799174e-01 0.000000e+00 0.000000e+00
1
Step 431000
Ar 1.082197e+00 0.000000e+00 0.000000e+00
1
Step 432000
Ar 6.258046e-01 0.000000e+00 0.000000e+00
1
Step 433000
Ar 1.041116e+00 0.000000e+00 0.000000e+00
1
Step 434000
Ar 9.721842e-01 0.000000e+00 0.000000e+00
1
Step 435000
Ar 9.492270e-01 0.000000e+00 0.000000e+00
1
Step 436000
Ar 1.065016e+00 0.000000e+00 0.000000e+00
1
Step 437000
Ar 1.108481e+00 0.000000e+00 0.000000e+00
1
Step 438000
Ar 8.012918e-01 0.000000e+00 0.000000e+00
1
Step 439000
Ar 7.638474e-01 0.000000e+00 0.000000e+00
1
Step 440000
Ar 9.428346e-01 0.000000e+00 0.000000e+00
1
Step 441000
Ar 8.629508e-01 0.000000e+00 0.000000e+00
1
Step 442000
Ar 6.207645e-01 0.000000e+00 0.000000e+00
1
Step 443000
Ar 7.263002e-01 0.000000e+00 0.000000e+00
1
Step 444000
Ar 9.831321e-01 0.000000e+00 0.000000e+00
1
Step 445000
Ar 1.298013e+00 0.000000e+00 0.000000e+00
1
Step 446000
Ar 8.724026e-01 0.000000e+00 0.000000e+00
1
Step 447000
Ar 6.473912e-01 0.000000e+00 0.000000e+00
1
Step 448000
Ar 9.334403e-01 0.000000e+00 0.000000e+00
1
Step 449000
Ar 9.361516e-01 0.000000e+00 0.000000e+00
1
Step 450000
Ar 9.361309e-01 0.000000e+00 0.000000e+00
1
Step 451000
Ar 1.097889e+00 0.000000e+00 0.000000e+00
1
Step 452000
Ar 1.200341e+00 0.000000e+00 0.000000e+00
1
Step 453000
Ar 8.038116e-01 0.000000e+00 0.000000e+00
1
Step 454000
Ar 7.898263e-01 0.000000e+00 0.000000e+00
1
Step 455000
Ar 6.940344e-01 0.000000e+00 0.000000e+00
1
Step 456000
Ar 8.985165e-01 0.000000e+00 0.000000e+00
1
Step 457000
Ar 7.791084e-01 0.000000e+00 0.000000e+00
1
Step 458000
Ar 8.210548e-01 0.000000e+00 0.000000e+00
1
Step 459000
Ar 4.565617e-01 0.000000e+00 0.000000e+00
1
Step 460000
Ar 1.027674e+00 0.000000e+00 0.000000e+00
1
Step 461000
Ar 1.026798e+00 0.000000e+00 0.000000e+00
1
Step 462000
Ar 7.813387e-01 0.000000e+00 0.000000e+00
1
Step 463000
Ar 7.961408e-01 0.000000e+00 0.000000e+00
1
Step 464000
Ar 1.143567e+00 0.000000e+00 0.000000e+00
1
Step 465000
Ar 1.101974e+00 0.000000e+00 0.000000e+00
1
Step 466000
Ar 1.012723e+00 0.000000e+00 0.000000e+00
1
Step 467000
Ar 1.015939e+00 0.000000e+00 0.000000e+00
1
Step 468000
Ar 9.738239e-01 0.000000e+00 0.000000e+00
1
Step 469000
Ar 9.518333e-01 0.000000e+00 0.000000e+00
1
Step 470000
Ar 1.015067e+00 0.000000e+00 0.000000e+00
1
Step 471000
Ar -1.017571e+00 0.000000e+00 0.000000e+00
1
Step 472000
Ar -9.908831e-01 0.000000e+00 0.000000e+00
1
Step 473000
Ar -1.001921e+00 0.000000e+00 0.000000e+00
1
Step 474000
Ar -1.029808e+00 0.000000e+00 0.000000e+00
1
Step 475000
Ar -9.855906e-01 0.000000e+00 0.000000e+00
1
Step 476000
Ar -1.002762e+00 0.000000e+00 0.000000e+00
1
Step 477000
Ar -1.012858e+00 0.000000e+00 0.000000e+00
1
Step 478000
Ar -1.015142e+00 0.000000e+00 0.000000e+00
1
Step 479000
Ar -1.004160e+00 0.000000e+00 0.000000e+00
1
Step 480000
Ar -1.026389e+00 0.000000e+00 0.000000e+00
1
Step 481000
Ar -9.710612e-01 0.000000e+00 0.000000e+00
1
Step 482000
Ar -9.686089e-01 0.000000e+00 0.000000e+00
1
Step 483000
Ar -9.736381e-01 0.000000e+00 0.000000e+00
1
Step 484000
Ar -9.713825e-01 0.000000e+00 0.000000e+00
1
Step 485000
Ar -9.756741e-01 0.000000e+00 0.000000e+00
1
Step 486000
Ar -9.666343e-01 0.000000e+00 0.000000e+00
1
Step 487000
Ar -9.582863e-01 0.000000e+00 0.000000e+00
1
Step 488000
Ar -9.619422e-01 0.000000e+00 0.000000e+00
1
Step 489000
Ar -9.629558e-01 0.000000e+00 0.000000e+00
1
Step 490000
Ar -9.647348e-01 0.000000e+00 0.000000e+00
1
Step 491000
Ar -9.553259e-01 0.000000e+00 0.000000e+00
1
Step 492000
Ar -9.471698e-01 0.000000e+00 0.000000e+00
1
Step 493000
Ar -9.500361e-01 0.000000e+00 0.000000e+00
1
Step 494000
Ar -9.501923e-01 0.000000e+00 0.000000e+00
1
Step 495000
Ar -9.429788e-01 0.000000e+00 0.000000e+00
1
Step 496000
Ar -1.009780e+00 0.000000e+00 0.000000e+00
1
Step 497000
Ar -1.002844e+00 0.000000e+00 0.000000e+00
1
Step 498000
Ar -9.957596e-01 0.000000e+00 0.000000e+00
1
Step 499000
Ar -1.002298e+00 0.000000e+00 0.000000e+00
1
Step 500000
Ar -1.011546e+00 0.000000e+00 0.000000e+00
1
Step 501000
Ar -9.949680e-01 0.000000e+00 0.000000e+00
1
Step 502000
Ar -9.984707e-01 0.000000e+00 0.000000e+00
1
Step 503000
Ar -1.003051e+00 0.000000e+00 0.000000e+00
1
Step 504000
Ar -1.002009e+00 0.000000e+00 0.000000e+00
1
Step 505000
Ar -9.990016e-01 0.000000e+00 0.000000e+00
1
Step 506000
Ar -1.048657e+00 0.000000e+00 0.000000e+00
1
Step 507000
Ar -1.040360e+00 0.000000e+00 0.000000e+00
1
Step 508000
Ar -1.043010e+00 0.000000e+00 0.000000e+00
1
Step 509000
Ar -1.044245e+00 0.000000e+00 0.000000e+00
1
Step 510000
Ar -1.044431e+00 0.000000e+00 0.000000e+00
1
Step 511000
Ar -1.032045e+00 0.000000e+00 0.000000e+00
1
Step 512000
Ar -9.934757e-01 0.000000e+00 0.000000e+00
1
Step 513000
Ar -9.297449e-01 0.000000e+00 0.000000e+00
1
Step 514000
Ar -9.309237e-01 0.000000e+00 0.000000e+00
1
Step 515000
Ar -9.341145e-01 0.000000e+00 0.000000e+00
1
Step 516000
Ar -9.273441e-01 0.000000e+00 0.000000e+00
1
Step 517000
Ar -9.239796e-01 0.000000e+00 0.000000e+00
1
Step 518000
Ar -9.253372e-01 0.000000e+00 0.000000e+00
1
Step 519000
Ar -9.295255e-01 0.000000e+00 0.000000e+00
1
Step 520000
Ar -9.235687e-01 0.000000e+00 0.000000e+00
1
Step 521000
Ar -9.543873e-01 0.000000e+00 0.000000e+00
1
Step 522000
Ar -9.566673e-01 0.000000e+00 0.000000e+00
1
Step 523000
Ar -9.541479e-01 0.000000e+00 0.000000e+00
1
Step 524000
Ar -9.546150e-01 0.000000e+00 0.000000e+00
1
Step 525000
Ar -9.538086e-01 0.000000e+00 0.000000e+00
1
Step 526000
Ar -9.155140e-01 0.000000e+00 0.000000e+00
1
Step 527000
Ar -9.137318e-01 0.000000e+00 0.000000e+00
1
Step 528000
Ar -9.175357e-01 0.000000e+00 0.000000e+00
1
Step 529000
Ar -9.131724e-01 0.000000e+00 0.000000e+00
1
Step 530000
Ar -9.091192e-01 0.000000e+00 0.000000e+00
1
Step 531000
Ar -1.036103e+00 0.000000e+00 0.000000e+00
1
Step 532000
Ar -1.057687e+00 0.000000e+00 0.000000e+00
1
Step 533000
Ar -9.020471e-01 0.000000e+00 0.000000e+00
1
Step 534000
Ar -8.964103e-01 0.000000e+00 0.000000e+00
1
Step 535000
Ar -9.002473e-01 0.000000e+00 0.000000e+00
1
Step 536000
Ar -8.924081e-01 0.000000e+00 0.000000e+00
1
Step 537000
Ar -8.913679e-01 0.000000e+00 0.000000e+00
1
Step 538000
Ar -8.883651e-01 0.000000e+00 0.000000e+00
1
Step 539000
Ar -8.910547e-01 0.000000e+00 0.000000e+00
1
Step 540000
Ar -8.921654e-01 0.000000e+00 0.000000e+00
1
Step 541000
Ar -9.397117e-01 0.000000e+00 0.000000e+00
1
Step 542000
Ar -1.062055e+00 0.000000e+00 0.000000e+00
1
Step 543000
Ar -1.060601e+00 0.000000e+00 0.000000e+00
1
Step 544000
Ar -1.056352e+00 0.000000e+00 0.000000e+00
1
Step 545000
Ar -1.056454e+00 0.000000e+00 0.000000e+00
1
Step 546000
Ar -1.063799e+00 0.000000e+00 0.000000e+00
1
Step 547000
Ar -1.067686e+00 0.000000e+00 0.000000e+00
1
Step 548000
Ar -1.066342e+00 0.000000e+00 0.000000e+00
1
Step 549000
Ar -1.065553e+00 0.000000e+00 0.000000e+00
1
Step 550000
Ar -1.069239e+00 0.000000e+00 0.000000e+00
1
Step 551000
Ar -9.246471e-01 0.000000e+00 0.000000e+00
1
Step 552000
Ar -9.924829e-01 0.000000e+00 0.000000e+00
1
Step 553000
Ar -1.016599e+00 0.000000e+00 0.000000e+00
1
Step 554000
Ar -1.020238e+00 0.000000e+00 0.000000e+00
1
Step 555000
Ar -1.052380e+00 0.000000e+00 0.000000e+00
1
Step 556000
Ar -1.008957e+00 0.000000e+00 0.000000e+00
1
Step 557000
Ar -9.332361e-01 0.000000e+00 0.000000e+00
1
Step 558000
Ar -1.053287e+00 0.000000e+00 0.000000e+00
1
Step 559000
Ar -1.005889e+00 0.000000e+00 0.000000e+00
1
Step 560000
Ar -1.033936e+00 0.000000e+00 0.000000e+00
1
Step 561000
Ar -9.493631e-01 0.000000e+00 0.000000e+00
1
Step 562000
Ar -9.808222e-01 0.000000e+00 0.000000e+00
1
Step 563000
Ar -1.035688e+00 0.000000e+00 0.000000e+00
1
Step 564000
Ar -1.020397e+00 0.000000e+00 0.000000e+00
1
Step 565000
Ar -1.081568e+00 0.000000e+00 0.000000e+00
1
Step 566000
Ar -1.003873e+00 0.000000e+00 0.000000e+00
1
Step 567000
Ar -9.859471e-01 0.000000e+00 0.000000e+00
1
Step 568000
Ar -9.934533e-01 0.000000e+00 0.000000e+00
1
Step 569000
Ar -9.914528e-01 0.000000e+00 0.000000e+00
1
Step 570000
Ar -1.006777e+00 0.000000e+00 0.000000e+00
1
Step 571000
Ar -9.795210e-01 0.000000e+00 0.000000e+00
1
Step 572000
Ar -9.883090e-01 0.000000e+00 0.000000e+00
1
Step 573000
Ar -9.936537e-01 0.000000e+00 0.000000e+00
1
Step 574000
Ar -1.004347e+00 0.000000e+00 0.000000e+00
1
Step 575000
Ar -9.909859e-01 0.000000e+00 0.000000e+00
1
Step 576000
Ar -9.773359e-01 0.000000e+00 0.000000e+00
1
Step 577000
Ar -9.794666e-01 0.000000e+00 0.000000e+00
1
Step 578000
Ar -9.725592e-01 0.000000e+00 0.000000e+00
1
Step 579000
Ar -9.715268e-01 0.000000e+00 0.000000e+00
1
Step 580000
Ar -9.609851e-01 0.000000e+00 0.000000e+00
1
Step 581000
Ar -9.455685e-01 0.000000e+00 0.000000e+00
1
Step 582000
Ar -9.525951e-01 0.000000e+00 0.000000e+00
1
Step 583000
Ar -9.459312e-01 0.000000e+00 0.000000e+00
1
Step 584000
Ar -9.282439e-01 0.000000e+00 0.000000e+00
1
Step 585000
Ar -1.065519e+00 0.000000e+00 0.000000e+00
1
Step 586000
Ar -8.776265e-01 0.000000e+00 0.000000e+00
1
Step 587000
Ar -8.812681e-01 0.000000e+00 0.000000e+00
1
Step 588000
Ar -8.835093e-01 0.000000e+00 0.000000e+00
1
Step 589000
Ar -8.832551e-01 0.000000e+00 0.000000e+00
1
Step 590000
Ar -9.569774e-01 0.000000e+00 0.000000e+00
1
Step 591000
Ar -9.869785e-01 0.000000e+00 0.000000e+00
1
Step 592000
Ar -9.756993e-01 0.000000e+00 0.000000e+00
1
Step 593000
Ar -9.735880e-01 0.000000e+00 0.000000e+00
1
Step 594000
Ar -9.739977e-01 0.000000e+00 0.000000e+00
1
Step 595000
Ar -9.737250e-01 0.000000e+00 0.000000e+00
1
Step 596000
Ar -1.097239e+00 0.000000e+00 0.000000e+00
1
Step 597000
Ar -1.090967e+00 0.000000e+00 0.000000e+00
1
Step 598000
Ar -1.092491e+00 0.000000e+00 0.000000e+00
1
Step 599000
Ar -1.090463e+00 0.000000e+00 0.000000e+00
1
Step 600000
Ar -1.091244e+00 0.000000e+00 0.000000e+00
1
Step 601000
Ar -8.961002e-01 0.000000e+00 0.000000e+00
1
Step 602000
Ar -1.019790e+00 0.000000e+00 0.000000e+00
1
Step 603000
Ar -9.180016e-01 0.000000e+00 0.000000e+00
1
Step 604000
Ar -1.064302e+00 0.000000e+00 0.000000e+00
1
Step 605000
Ar -1.141992e+00 0.000000e+00 0.000000e+00
1
Step 606000
Ar -8.826001e-01 0.000000e+00 0.000000e+00
1
Step 607000
Ar -9.095812e-01 0.000000e+00 0.000000e+00
1
Step 608000
Ar -8.812295e-01 0.000000e+00 0.000000e+00
1
Step 609000
Ar -8.856108e-01 0.000000e+00 0.000000e+00
1
Step 610000
Ar -8.823734e-01 0.000000e+00 0.000000e+00
1
Step 611000
Ar -8.726482e-01 0.000000e+00 0.000000e+00
1
Step 612000
Ar -8.749710e-01 0.000000e+00 0.000000e+00
1
Step 613000
Ar -8.750213e-01 0.000000e+00 0.000000e+00
1
Step 614000
Ar -8.766299e-01 0.000000e+00 0.000000e+00
1
Step 615000
Ar -8.749200e-01 0.000000e+00 0.000000e+00
1
Step 616000
Ar -1.028625e+00 0.000000e+00 0.000000e+00
1
Step 617000
Ar -9.566144e-01 0.000000e+00 0.000000e+00
1
Step 618000
Ar -9.992014e-01 0.000000e+00 0.000000e+00
1
Step 619000
Ar -8.577739e-01 0.000000e+00 0.000000e+00
1
Step 620000
Ar -8.664658e-01 0.000000e+00 0.000000e+00
1
Step 621000
Ar -9.974760e-01 0.000000e+00 0.000000e+00
1
Step 622000
Ar -1.137378e+00 0.000000e+00 0.000000e+00
1
Step 623000
Ar -1.012016e+00 0.000000e+00 0.000000e+00
1
Step 624000
Ar -9.310367e-01 0.000000e+00 0.000000e+00
1
Step 625000
Ar -9.471046e-01 0.000000e+00 0.000000e+00
1
Step 626000
Ar -9.952003e-01 0.000000e+00 0.000000e+00
1
Step 627000
Ar -9.996316e-01 0.000000e+00 0.000000e+00
1
Step 628000
Ar -1.031564e+00 0.000000e+00 0.000000e+00
1
Step 629000
Ar -9.284145e-01 0.000000e+00 0.000000e+00
1
Step 630000
Ar -9.361627e-01 0.000000e+00 0.000000e+00
1
Step 631000
Ar -8.623965e-01 0.000000e+00 0.000000e+00
1
Step 632000
Ar -9.480934e-01 0.000000e+00 0.000000e+00
1
Step 633000
Ar -9.459136e-01 0.000000e+00 0.000000e+00
1
Step 634000
Ar -9.440755e-01 0.000000e+00 0.000000e+00
1
Step 635000
Ar -9.468840e-01 0.000000e+00 0.000000e+00
1
Step 636000
Ar -9.171086e-01 0.000000e+00 0.000000e+00
1
Step 637000
Ar -1.103023e+00 0.000000e+00 0.000000e+00
1
Step 638000
Ar -1.012845e+00 0.000000e+00 0.000000e+00
1
Step 639000
Ar -9.024188e-01 0.000000e+00 0.000000e+00
1
Step 640000
Ar -1.018696e+00 0.000000e+00 0.000000e+00
1
Step 641000
Ar -1.040050e+00 0.000000e+00 0.000000e+00
1
Step 642000
Ar -1.020788e+00 0.000000e+00 0.000000e+00
1
Step 643000
Ar -1.041353e+00 0.000000e+00 0.000000e+00
1
Step 644000
Ar -1.040030e+00 0.000000e+00 0.000000e+00
1
Step 645000
Ar -1.029414e+00 0.000000e+00 0.000000e+00
1
Step 646000
Ar -9.935695e-01 0.000000e+00 0.000000e+00
1
Step 647000
Ar -1.001493e+00 0.000000e+00 0.000000e+00
1
Step 648000
Ar -9.950574e-01 0.000000e+00 0.000000e+00
1
Step 649000
Ar -1.009767e+00 0.000000e+00 0.000000e+00
1
Step 650000
Ar -9.945357e-01 0.000000e+00 0.000000e+00
1
Step 651000
Ar -1.016990e+00 0.000000e+00 0.000000e+00
1
Step 652000