1
Step 120000
Ar 1.002240e+00 0.000000e+00 0.000000e+00
1
Step 121000
Ar 9.903198e-01 0.000000e+00 0.000000e+00
1
Step 122000
Ar 9.951926e-01 0.000000e+00 0.000000e+00
1
Step 123000
Ar 1.007763e+00 0.000000e+00 0.000000e+00
1
Step 124000
Ar 1.012035e+00 0.000000e+00 0.000000e+00
1
Step 125000
Ar 1.001941e+00 0.000000e+00 0.000000e+00
1
Step 126000
Ar 9.839212e-01 0.000000e+00 0.000000e+00
1
Step 127000
Ar 9.901890e-01 0.000000e+00 0.000000e+00
1
Step 128000
Ar 9.804894e-01 0.000000e+00 0.000000e+00
1
Step 129000
Ar 9.874409e-01 0.000000e+00 0.000000e+00
1
Step 130000
Ar 9.930567e-01 0.000000e+00 0.000000e+00
1
Step 131000
Ar 9.843171e-01 0.000000e+00 0.000000e+00
1
Step 132000
Ar 9.863396e-01 0.000000e+00 0.000000e+00
1
Step 133000
Ar 9.862208e-01 0.000000e+00 0.000000e+00
1
Step 134000
Ar 9.916857e-01 0.000000e+00 0.000000e+00
1
Step 135000
Ar 9.724964e-01 0.000000e+00 0.000000e+00
1
Step 136000
Ar 9.789818e-01 0.000000e+00 0.000000e+00
1
Step 137000
Ar 9.706211e-01 0.000000e+00 0.000000e+00
1
Step 138000
Ar 9.907399e-01 0.000000e+00 0.000000e+00
1
Step 139000
Ar 9.909401e-01 0.000000e+00 0.000000e+00
1
Step 140000
Ar 9.538650e-01 0.000000e+00 0.000000e+00
1
Step 141000
Ar 9.647789e-01 0.000000e+00 0.000000e+00
1
Step 142000
Ar 9.654736e-01 0.000000e+00 0.000000e+00
1
Step 143000
Ar 1.020506e+00 0.000000e+00 0.000000e+00
1
Step 144000
Ar 1.012971e+00 0.000000e+00 0.000000e+00
1
Step 145000
Ar 1.016984e+00 0.000000e+00 0.000000e+00
1
Step 146000
Ar 1.031591e+00 0.000000e+00 0.000000e+00
1
Step 147000
Ar 9.870821e-01 0.000000e+00 0.000000e+00
1
Step 148000
Ar 9.476524e-01 0.000000e+00 0.000000e+00
1
Step 149000
Ar 9.473088e-01 0.000000e+00 0.000000e+00
1
Step 150000
Ar 9.434682e-01 0.000000e+00 0.000000e+00
1
Step 151000
Ar 9.454052e-01 0.000000e+00 0.000000e+00
1
Step 152000
Ar 9.389293e-01 0.000000e+00 0.000000e+00
1
Step 153000
Ar 1.030614e+00 0.000000e+00 0.000000e+00
1
Step 154000
Ar 1.062907e+00 0.000000e+00 0.000000e+00
1
Step 155000
Ar 1.073883e+00 0.000000e+00 0.000000e+00
1
Step 156000
Ar 1.066759e+00 0.000000e+00 0.000000e+00
1
Step 157000
Ar 1.071213e+00 0.000000e+00 0.000000e+00
1
Step 158000
Ar 1.067865e+00 0.000000e+00 0.000000e+00
1
Step 159000
Ar 1.069361e+00 0.000000e+00 0.000000e+00
1
Step 160000
Ar 1.066092e+00 0.000000e+00 0.000000e+00
1
Step 161000
Ar 1.071649e+00 0.000000e+00 0.000000e+00
1
Step 162000
Ar 1.064925e+00 0.000000e+00 0.000000e+00
1
Step 163000
Ar 1.067382e+00 0.000000e+00 0.000000e+00
1
Step 164000
Ar 1.066695e+00 0.000000e+00 0.000000e+00
1
Step 165000
Ar 1.073844e+00 0.000000e+00 0.000000e+00
1
Step 166000
Ar 1.066278e+00 0.000000e+00 0.000000e+00
1
Step 167000
Ar 1.066320e+00 0.000000e+00 0.000000e+00
1
Step 168000
Ar 1.068230e+00 0.000000e+00 0.000000e+00
1
Step 169000
Ar 1.066320e+00 0.000000e+00 0.000000e+00
1
Step 170000
Ar 1.066732e+00 0.000000e+00 0.000000e+00
1
Step 171000
Ar 1.065710e+00 0.000000e+00 0.000000e+00
1
Step 172000
Ar 1.066607e+00 0.000000e+00 0.000000e+00
1
Step 173000
Ar 1.067317e+00 0.000000e+00 0.000000e+00
1
Step 174000
Ar 1.064563e+00 0.000000e+00 0.000000e+00
1
Step 175000
Ar 1.077903e+00 0.000000e+00 0.000000e+00
1
Step 176000
Ar 1.091112e+00 0.000000e+00 0.000000e+00
1
Step 177000
Ar 1.090508e+00 0.000000e+00 0.000000e+00
1
Step 178000
Ar 1.085800e+00 0.000000e+00 0.000000e+00
1
Step 179000
Ar 9.863694e-01 0.000000e+00 0.000000e+00
1
Step 180000
Ar 1.101470e+00 0.000000e+00 0.000000e+00
1
Step 181000
Ar 1.005990e+00 0.000000e+00 0.000000e+00
1
Step 182000
Ar 9.460294e-01 0.000000e+00 0.000000e+00
1
Step 183000
Ar 9.339646e-01 0.000000e+00 0.000000e+00
1
Step 184000
Ar 9.344852e-01 0.000000e+00 0.000000e+00
1
Step 185000
Ar 9.321781e-01 0.000000e+00 0.000000e+00
1
Step 186000
Ar 9.288989e-01 0.000000e+00 0.000000e+00
1
Step 187000
Ar 9.274528e-01 0.000000e+00 0.000000e+00
1
Step 188000
Ar 1.059670e+00 0.000000e+00 0.000000e+00
1
Step 189000
Ar 9.073440e-01 0.000000e+00 0.000000e+00
1
Step 190000
Ar 9.057447e-01 0.000000e+00 0.000000e+00
1
Step 191000
Ar 9.089851e-01 0.000000e+00 0.000000e+00
1
Step 192000
Ar 9.004889e-01 0.000000e+00 0.000000e+00
1
Step 193000
Ar 8.978459e-01 0.000000e+00 0.000000e+00
1
Step 194000
Ar 8.977437e-01 0.000000e+00 0.000000e+00
1
Step 195000
Ar 8.963281e-01 0.000000e+00 0.000000e+00
1
Step 196000
Ar 1.013399e+00 0.000000e+00 0.000000e+00
1
Step 197000
Ar 1.029001e+00 0.000000e+00 0.000000e+00
1
Step 198000
Ar 1.195881e+00 0.000000e+00 0.000000e+00
1
Step 199000
Ar 9.433478e-01 0.000000e+00 0.000000e+00
1
Step 200000
Ar 9.366778e-01 0.000000e+00 0.000000e+00
1
Step 201000
Ar 9.197280e-01 0.000000e+00 0.000000e+00
1
Step 202000
Ar 1.025830e+00 0.000000e+00 0.000000e+00
1
Step 203000
Ar 1.010003e+00 0.000000e+00 0.000000e+00
1
Step 204000
Ar 9.638338e-01 0.000000e+00 0.000000e+00
1
Step 205000
Ar 1.103351e+00 0.000000e+00 0.000000e+00
1
Step 206000
Ar 8.168004e-01 0.000000e+00 0.000000e+00
1
Step 207000
Ar 8.991272e-01 0.000000e+00 0.000000e+00
1
Step 208000
Ar 9.528030e-01 0.000000e+00 0.000000e+00
1
Step 209000
Ar 9.987710e-01 0.000000e+00 0.000000e+00
1
Step 210000
Ar 7.438422e-01 0.000000e+00 0.000000e+00
1
Step 211000
Ar 9.112077e-01 0.000000e+00 0.000000e+00
1
Step 212000
Ar 9.773357e-01 0.000000e+00 0.000000e+00
1
Step 213000
Ar 8.865400e-01 0.000000e+00 0.000000e+00
1
Step 214000
Ar 8.850278e-01 0.000000e+00 0.000000e+00
1
Step 215000
Ar 8.863148e-01 0.000000e+00 0.000000e+00
1
Step 216000
Ar 8.895207e-01 0.000000e+00 0.000000e+00
1
Step 217000
Ar 8.848553e-01 0.000000e+00 0.000000e+00
1
Step 218000
Ar 8.862188e-01 0.000000e+00 0.000000e+00
1
Step 219000
Ar 8.845261e-01 0.000000e+00 0.000000e+00
1
Step 220000
Ar 8.809041e-01 0.000000e+00 0.000000e+00
1
Step 221000
Ar 8.878272e-01 0.000000e+00 0.000000e+00
1
Step 222000
Ar 9.660297e-01 0.000000e+00 0.000000e+00
1
Step 223000
Ar 1.004693e+00 0.000000e+00 0.000000e+00
1
Step 224000
Ar 9.258040e-01 0.000000e+00 0.000000e+00
1
Step 225000
Ar 1.106522e+00 0.000000e+00 0.000000e+00
1
Step 226000
Ar 1.099031e+00 0.000000e+00 0.000000e+00
1
Step 227000
Ar 8.390302e-01 0.000000e+00 0.000000e+00
1
Step 228000
Ar 8.830336e-01 0.000000e+00 0.000000e+00
1
Step 229000
Ar 8.843433e-01 0.000000e+00 0.000000e+00
1
Step 230000
Ar 8.843861e-01 0.000000e+00 0.000000e+00
1
Step 231000
Ar 8.742324e-01 0.000000e+00 0.000000e+00
1
Step 232000
Ar 8.749195e-01 0.000000e+00 0.000000e+00
1
Step 233000
Ar 8.544533e-01 0.000000e+00 0.000000e+00
1
Step 234000
Ar 1.051447e+00 0.000000e+00 0.000000e+00
1
Step 235000
Ar 1.061373e+00 0.000000e+00 0.000000e+00
1
Step 236000
Ar 6.991550e-01 0.000000e+00 0.000000e+00
1
Step 237000
Ar 1.027488e+00 0.000000e+00 0.000000e+00
1
Step 238000
Ar 9.670138e-01 0.000000e+00 0.000000e+00
1
Step 239000
Ar 9.389376e-01 0.000000e+00 0.000000e+00
1
Step 240000
Ar 9.677843e-01 0.000000e+00 0.000000e+00
1
Step 241000
Ar 1.191876e+00 0.000000e+00 0.000000e+00
1
Step 242000
Ar 8.425973e-01 0.000000e+00 0.000000e+00
1
Step 243000
Ar 7.289082e-01 0.000000e+00 0.000000e+00
1
Step 244000
Ar 1.177134e+00 0.000000e+00 0.000000e+00
1
Step 245000
Ar 9.206283e-01 0.000000e+00 0.000000e+00
1
Step 246000
Ar 1.130479e+00 0.000000e+00 0.000000e+00
1
Step 247000
Ar 1.105796e+00 0.000000e+00 0.000000e+00
1
Step 248000
Ar 9.300576e-01 0.000000e+00 0.000000e+00
1
Step 249000
Ar 9.957492e-01 0.000000e+00 0.000000e+00
1
Step 250000
Ar 8.925894e-01 0.000000e+00 0.000000e+00
1
Step 251000
Ar 8.934301e-01 0.000000e+00 0.000000e+00
1
Step 252000
Ar 9.705574e-01 0.000000e+00 0.000000e+00
1
Step 253000
Ar 9.737599e-01 0.000000e+00 0.000000e+00
1
Step 254000
Ar 9.995212e-01 0.000000e+00 0.000000e+00
1
Step 255000
Ar 1.008183e+00 0.000000e+00 0.000000e+00
1
Step 256000
Ar 1.104641e+00 0.000000e+00 0.000000e+00
1
Step 257000
Ar 1.100980e+00 0.000000e+00 0.000000e+00
1
Step 258000
Ar 1.096503e+00 0.000000e+00 0.000000e+00
1
Step 259000
Ar 1.035780e+00 0.000000e+00 0.000000e+00
1
Step 260000
Ar 1.073306e+00 0.000000e+00 0.000000e+00
1
Step 261000
Ar 9.116478e-01 0.000000e+00 0.000000e+00
1
Step 262000
Ar 1.001961e+00 0.000000e+00 0.000000e+00
1
Step 263000
Ar 1.103198e+00 0.000000e+00 0.000000e+00
1
Step 264000
Ar 1.098903e+00 0.000000e+00 0.000000e+00
1
Step 265000
Ar 1.100358e+00 0.000000e+00 0.000000e+00
1
Step 266000
Ar 1.108706e+00 0.000000e+00 0.000000e+00
1
Step 267000
Ar 9.766052e-01 0.000000e+00 0.000000e+00
1
Step 268000
Ar 9.579559e-01 0.000000e+00 0.000000e+00
1
Step 269000
Ar 1.042758e+00 0.000000e+00 0.000000e+00
1
Step 270000
Ar 9.781254e-01 0.000000e+00 0.000000e+00
1
Step 271000
Ar 8.795320e-01 0.000000e+00 0.000000e+00
1
Step 272000
Ar 1.212431e+00 0.000000e+00 0.000000e+00
1
Step 273000
Ar 8.210065e-01 0.000000e+00 0.000000e+00
1
Step 274000
Ar 8.808787e-01 0.000000e+00 0.000000e+00
1
Step 275000
Ar 1.069747e+00 0.000000e+00 0.000000e+00
1
Step 276000
Ar 1.141164e+00 0.000000e+00 0.000000e+00
1
Step 277000
Ar 8.205834e-01 0.000000e+00 0.000000e+00
1
Step 278000
Ar 8.078433e-01 0.000000e+00 0.000000e+00
1
Step 279000
Ar 8.057713e-01 0.000000e+00 0.000000e+00
1
Step 280000
Ar 8.945775e-01 0.000000e+00 0.000000e+00
1
Step 281000
Ar 1.002022e+00 0.000000e+00 0.000000e+00
1
Step 282000
Ar 8.791541e-01 0.000000e+00 0.000000e+00
1
Step 283000
Ar 1.091333e+00 0.000000e+00 0.000000e+00
1
Step 284000
Ar 9.309145e-01 0.000000e+00 0.000000e+00
1
Step 285000
Ar 1.174776e+00 0.000000e+00 0.000000e+00
1
Step 286000
Ar 7.308583e-01 0.000000e+00 0.000000e+00
1
Step 287000
Ar 1.159570e+00 0.000000e+00 0.000000e+00
1
Step 288000
Ar 7.037174e-01 0.000000e+00 0.000000e+00
1
Step 289000
Ar 9.528794e-01 0.000000e+00 0.000000e+00
1
Step 290000
Ar 9.416500e-01 0.000000e+00 0.000000e+00
1
Step 291000
Ar 9.679244e-01 0.000000e+00 0.000000e+00
1
Step 292000
Ar 1.035386e+00 0.000000e+00 0.000000e+00
1
Step 293000
Ar 9.948253e-01 0.000000e+00 0.000000e+00
1
Step 294000
Ar 8.740417e-01 0.000000e+00 0.000000e+00
1
Step 295000
Ar 9.492463e-01 0.000000e+00 0.000000e+00
1
Step 296000
Ar 8.652682e-01 0.000000e+00 0.000000e+00
1
Step 297000
Ar 8.662924e-01 0.000000e+00 0.000000e+00
1
Step 298000
Ar 1.032967e+00 0.000000e+00 0.000000e+00
1
Step 299000
Ar 9.390169e-01 0.000000e+00 0.000000e+00
1
Step 300000
Ar 9.532482e-01 0.000000e+00 0.000000e+00
1
Step 301000
Ar 1.058335e+00 0.000000e+00 0.000000e+00
1
Step 302000
Ar 1.056933e+00 0.000000e+00 0.000000e+00
1
Step 303000
Ar 1.059196e+00 0.000000e+00 0.000000e+00
1
Step 304000
Ar 1.058831e+00 0.000000e+00 0.000000e+00
1
Step 305000
Ar 8.838980e-01 0.000000e+00 0.000000e+00
1
Step 306000
Ar 1.144706e+00 0.000000e+00 0.000000e+00
1
Step 307000
Ar 9.999042e-01 0.000000e+00 0.000000e+00
1
Step 308000
Ar 1.047886e+00 0.000000e+00 0.000000e+00
1
Step 309000
Ar 1.024728e+00 0.000000e+00 0.000000e+00
1
Step 310000
Ar 1.046567e+00 0.000000e+00 0.000000e+00
1
Step 311000
Ar 1.044476e+00 0.000000e+00 0.000000e+00
1
Step 312000
Ar 8.918476e-01 0.000000e+00 0.000000e+00
1
Step 313000
Ar 1.064396e+00 0.000000e+00 0.000000e+00
1
Step 314000
Ar 1.141879e+00 0.000000e+00 0.000000e+00
1
Step 315000
Ar 9.709409e-01 0.000000e+00 0.000000e+00
1
Step 316000
Ar 6.679955e-01 0.000000e+00 0.000000e+00
1
Step 317000
Ar 1.061255e+00 0.000000e+00 0.000000e+00
1
Step 318000
Ar 1.059378e+00 0.000000e+00 0.000000e+00
1
Step 319000
Ar 9.113300e-01 0.000000e+00 0.000000e+00
1
Step 320000
Ar 1.119368e+00 0.000000e+00 0.000000e+00
1
Step 321000
Ar 1.058302e+00 0.000000e+00 0.000000e+00
1
Step 322000
Ar 1.059122e+00 0.000000e+00 0.000000e+00
1
Step 323000
Ar 1.064619e+00 0.000000e+00 0.000000e+00
1
Step 324000
Ar 1.058043e+00 0.000000e+00 0.000000e+00
1
Step 325000
Ar 1.097447e+00 0.000000e+00 0.000000e+00
1
Step 326000
Ar 9.541215e-01 0.000000e+00 0.000000e+00
1
Step 327000
Ar 1.235662e+00 0.000000e+00 0.000000e+00
1
Step 328000
Ar 8.044599e-01 0.000000e+00 0.000000e+00
1
Step 329000
Ar 9.121061e-01 0.000000e+00 0.000000e+00
1
Step 330000
Ar 8.613346e-01 0.000000e+00 0.000000e+00
1
Step 331000
Ar 1.080382e+00 0.000000e+00 0.000000e+00
1
Step 332000
Ar 8.697984e-01 0.000000e+00 0.000000e+00
1
Step 333000
Ar 1.097465e+00 0.000000e+00 0.000000e+00
1
Step 334000
Ar 7.321013e-01 0.000000e+00 0.000000e+00
1
Step 335000
Ar 6.358486e-01 0.000000e+00 0.000000e+00
1
Step 336000
Ar 8.476098e-01 0.000000e+00 0.000000e+00
1
Step 337000
Ar 8.447303e-01 0.000000e+00 0.000000e+00
1
Step 338000
Ar 8.106212e-01 0.000000e+00 0.000000e+00
1
Step 339000
Ar 8.920564e-01 0.000000e+00 0.000000e+00
1
Step 340000
Ar 1.064278e+00 0.000000e+00 0.000000e+00
1
Step 341000
Ar 1.025357e+00 0.000000e+00 0.000000e+00
1
Step 342000
Ar 1.056533e+00 0.000000e+00 0.000000e+00
1
Step 343000
Ar 1.108744e+00 0.000000e+00 0.000000e+00
1
Step 344000
Ar 6.574474e-01 0.000000e+00 0.000000e+00
1
Step 345000
Ar 1.078334e+00 0.000000e+00 0.000000e+00
1
Step 346000
Ar 1.230756e+00 0.000000e+00 0.000000e+00
1
Step 347000
Ar 8.835465e-01 0.000000e+00 0.000000e+00
1
Step 348000
Ar 1.212490e+00 0.000000e+00 0.000000e+00
1
Step 349000
Ar 9.566866e-01 0.000000e+00 0.000000e+00
1
Step 350000
Ar 1.014045e+00 0.000000e+00 0.000000e+00
1
Step 351000
Ar 8.745362e-01 0.000000e+00 0.000000e+00
1
Step 352000
Ar 1.167500e+00 0.000000e+00 0.000000e+00
1
Step 353000
Ar 8.739571e-01 0.000000e+00 0.000000e+00
1
Step 354000
Ar 1.189514e+00 0.000000e+00 0.000000e+00
1
Step 355000
Ar 1.036819e+00 0.000000e+00 0.000000e+00
1
Step 356000
Ar 8.333938e-01 0.000000e+00 0.000000e+00
1
Step 357000
Ar 1.092241e+00 0.000000e+00 0.000000e+00
1
Step 358000
Ar 9.982902e-01 0.000000e+00 0.000000e+00
1
Step 359000
Ar 1.137653e+00 0.000000e+00 0.000000e+00
1
Step 360000
Ar 1.112688e+00 0.000000e+00 0.000000e+00
1
Step 361000
Ar 1.141054e+00 0.000000e+00 0.000000e+00
1
Step 362000
Ar 1.075211e+00 0.000000e+00 0.000000e+00
1
Step 363000
Ar 1.150110e+00 0.000000e+00 0.000000e+00
1
Step 364000
Ar 1.102849e+00 0.000000e+00 0.000000e+00
1
Step 365000
Ar 1.127723e+00 0.000000e+00 0.000000e+00
1
Step 366000
Ar 9.531428e-01 0.000000e+00 0.000000e+00
1
Step 367000
Ar -7.591843e-01 0.000000e+00 0.000000e+00
1
Step 368000
Ar -1.033054e+00 0.000000e+00 0.000000e+00
1
Step 369000
Ar -1.030063e+00 0.000000e+00 0.000000e+00
1
Step 370000
Ar -1.031345e+00 0.000000e+00 0.000000e+00
1
Step 371000
Ar -1.029747e+00 0.000000e+00 0.000000e+00
1
Step 372000
Ar -1.030557e+00 0.000000e+00 0.000000e+00
1
Step 373000
Ar -1.030937e+00 0.000000e+00 0.000000e+00
1
Step 374000
Ar -1.034708e+00 0.000000e+00 0.000000e+00
1
Step 375000
Ar -1.037743e+00 0.000000e+00 0.000000e+00
1
Step 376000
Ar -1.037851e+00 0.000000e+00 0.000000e+00
1
Step 377000
Ar -1.031668e+00 0.000000e+00 0.000000e+00
1
Step 378000
Ar -1.032660e+00 0.000000e+00 0.000000e+00
1
Step 379000
Ar -1.028231e+00 0.000000e+00 0.000000e+00
1
Step 380000
Ar -1.030779e+00 0.000000e+00 0.000000e+00
1
Step 381000
Ar -1.032121e+00 0.000000e+00 0.000000e+00
1
Step 382000
Ar -1.032530e+00 0.000000e+00 0.000000e+00
1
Step 383000
Ar -1.034810e+00 0.000000e+00 0.000000e+00
1
Step 384000
Ar -1.033829e+00 0.000000e+00 0.000000e+00
1
Step 385000
Ar -1.043251e+00 0.000000e+00 0.000000e+00
1
Step 386000
Ar -1.042538e+00 0.000000e+00 0.000000e+00
1
Step 387000
Ar -1.046636e+00 0.000000e+00 0.000000e+00
1
Step 388000
Ar -1.042051e+00 0.000000e+00 0.000000e+00
1
Step 389000
Ar -1.040544e+00 0.000000e+00 0.000000e+00
1
Step 390000
Ar -1.045668e+00 0.000000e+00 0.000000e+00
1
Step 391000
Ar -1.045085e+00 0.000000e+00 0.000000e+00
1
Step 392000
Ar -1.043330e+00 0.000000e+00 0.000000e+00
1
Step 393000
Ar -1.053510e+00 0.000000e+00 0.000000e+00
1
Step 394000
Ar -9.765443e-01 0.000000e+00 0.000000e+00
1
Step 395000
Ar -9.878391e-01 0.000000e+00 0.000000e+00
1
Step 396000
Ar -9.907713e-01 0.000000e+00 0.000000e+00
1
Step 397000
Ar -9.696688e-01 0.000000e+00 0.000000e+00
1
Step 398000
Ar -9.750496e-01 0.000000e+00 0.000000e+00
1
Step 399000
Ar -9.755202e-01 0.000000e+00 0.000000e+00
1
Step 400000
Ar -9.744754e-01 0.000000e+00 0.000000e+00
1
Step 401000
Ar -9.682137e-01 0.000000e+00 0.000000e+00
1
Step 402000
Ar -9.524902e-01 0.000000e+00 0.000000e+00
1
Step 403000
Ar -9.611811e-01 0.000000e+00 0.000000e+00
1
Step 404000
Ar -9.469791e-01 0.000000e+00 0.000000e+00
1
Step 405000
Ar -9.611040e-01 0.000000e+00 0.000000e+00
1
Step 406000
Ar -9.620060e-01 0.000000e+00 0.000000e+00
1
Step 407000
Ar -9.607958e-01 0.000000e+00 0.000000e+00
1
Step 408000
Ar -9.606190e-01 0.000000e+00 0.000000e+00
1
Step 409000
Ar -9.528478e-01 0.000000e+00 0.000000e+00
1
Step 410000
Ar -9.612485e-01 0.000000e+00 0.000000e+00
1
Step 411000
Ar -9.614306e-01 0.000000e+00 0.000000e+00
1
Step 412000
Ar -9.633582e-01 0.000000e+00 0.000000e+00
1
Step 413000
Ar -9.616053e-01 0.000000e+00 0.000000e+00
1
Step 414000
Ar -9.614720e-01 0.000000e+00 0.000000e+00
1
Step 415000
Ar -9.579198e-01 0.000000e+00 0.000000e+00
1
Step 416000
Ar -9.619402e-01 0.000000e+00 0.000000e+00
1
Step 417000
Ar -9.425475e-01 0.000000e+00 0.000000e+00
1
Step 418000
Ar -9.419551e-01 0.000000e+00 0.000000e+00
1
Step 419000
Ar -9.551013e-01 0.000000e+00 0.000000e+00
1
Step 420000
Ar -9.419201e-01 0.000000e+00 0.000000e+00
1
Step 421000
Ar -9.404817e-01 0.000000e+00 0.000000e+00
1
Step 422000
Ar -9.478564e-01 0.000000e+00 0.000000e+00
1
Step 423000
Ar -9.433544e-01 0.000000e+00 0.000000e+00
1
Step 424000
Ar -1.010149e+00 0.000000e+00 0.000000e+00
1
Step 425000
Ar -1.063349e+00 0.000000e+00 0.000000e+00
1
Step 426000
Ar -1.069284e+00 0.000000e+00 0.000000e+00
1
Step 427000
Ar -1.070753e+00 0.000000e+00 0.000000e+00
1
Step 428000
Ar -1.006689e+00 0.000000e+00 0.000000e+00
1
Step 429000
Ar -1.011208e+00 0.000000e+00 0.000000e+00
1
Step 430000
Ar -1.041701e+00 0.000000e+00 0.000000e+00
1
Step 431000
Ar -1.040783e+00 0.000000e+00 0.000000e+00
1
Step 432000
Ar -1.039556e+00 0.000000e+00 0.000000e+00
1
Step 433000
Ar -1.041121e+00 0.000000e+00 0.000000e+00
1
Step 434000
Ar -9.149400e-01 0.000000e+00 0.000000e+00
1
Step 435000
Ar -9.188236e-01 0.000000e+00 0.000000e+00
1
Step 436000
Ar -9.190234e-01 0.000000e+00 0.000000e+00
1
Step 437000
Ar -1.046481e+00 0.000000e+00 0.000000e+00
1
Step 438000
Ar -1.076920e+00 0.000000e+00 0.000000e+00
1
Step 439000
Ar -1.076087e+00 0.000000e+00 0.000000e+00
1
Step 440000
Ar -1.072624e+00 0.000000e+00 0.000000e+00
1
Step 441000
Ar -1.076267e+00 0.000000e+00 0.000000e+00
1
Step 442000
Ar -1.073410e+00 0.000000e+00 0.000000e+00
1
Step 443000
Ar -1.022396e+00 0.000000e+00 0.000000e+00
1
Step 444000
Ar -1.039484e+00 0.000000e+00 0.000000e+00
1
Step 445000
Ar -1.036637e+00 0.000000e+00 0.000000e+00
1
Step 446000
Ar -1.040532e+00 0.000000e+00 0.000000e+00
1
Step 447000
Ar -1.052502e+00 0.000000e+00 0.000000e+00
1
Step 448000
Ar -9.485737e-01 0.000000e+00 0.000000e+00
1
Step 449000
Ar -9.216068e-01 0.000000e+00 0.000000e+00
1
Step 450000
Ar -9.222272e-01 0.000000e+00 0.000000e+00
1
Step 451000
Ar -9.146723e-01 0.000000e+00 0.000000e+00
1
Step 452000
Ar -9.183859e-01 0.000000e+00 0.000000e+00
1
Step 453000
Ar -9.683770e-01 0.000000e+00 0.000000e+00
1
Step 454000
Ar -9.776651e-01 0.000000e+00 0.000000e+00
1
Step 455000
Ar -9.988019e-01 0.000000e+00 0.000000e+00
1
Step 456000
Ar -9.101302e-01 0.000000e+00 0.000000e+00
1
Step 457000
Ar -9.096168e-01 0.000000e+00 0.000000e+00
1
Step 458000
Ar -9.554243e-01 0.000000e+00 0.000000e+00
1
Step 459000
Ar -1.065925e+00 0.000000e+00 0.000000e+00
1
Step 460000
Ar -1.009583e+00 0.000000e+00 0.000000e+00
1
Step 461000
Ar -8.930762e-01 0.000000e+00 0.000000e+00
1
Step 462000
Ar -8.983100e-01 0.000000e+00 0.000000e+00
1
Step 463000
Ar -9.013863e-01 0.000000e+00 0.000000e+00
1
Step 464000
Ar -8.966076e-01 0.000000e+00 0.000000e+00
1
Step 465000
Ar -9.082517e-01 0.000000e+00 0.000000e+00
1
Step 466000
Ar -1.154613e+00 0.000000e+00 0.000000e+00
1
Step 467000
Ar -8.391109e-01 0.000000e+00 0.000000e+00
1
Step 468000
Ar -9.063048e-01 0.000000e+00 0.000000e+00
1
Step 469000
Ar -1.086046e+00 0.000000e+00 0.000000e+00
1
Step 470000
Ar -9.108473e-01 0.000000e+00 0.000000e+00
1
Step 471000
Ar -1.109403e+00 0.000000e+00 0.000000e+00
1
Step 472000
Ar -9.558183e-01 0.000000e+00 0.000000e+00
1
Step 473000
Ar -1.021076e+00 0.000000e+00 0.000000e+00
1
Step 474000
Ar -1.150032e+00 0.000000e+00 0.000000e+00
1
Step 475000
Ar -9.501463e-01 0.000000e+00 0.000000e+00
1
Step 476000
Ar -1.111113e+00 0.000000e+00 0.000000e+00
1
Step 477000
Ar -9.848125e-01 0.000000e+00 0.000000e+00
1
Step 478000
Ar -8.103426e-01 0.000000e+00 0.000000e+00
1
Step 479000
Ar -1.022957e+00 0.000000e+00 0.000000e+00
1
Step 480000
Ar -9.576161e-01 0.000000e+00 0.000000e+00
1
Step 481000
Ar -9.563079e-01 0.000000e+00 0.000000e+00
1
Step 482000
Ar -1.100536e+00 0.000000e+00 0.000000e+00
1
Step 483000
Ar -1.058176e+00 0.000000e+00 0.000000e+00
1
Step 484000
Ar -8.772479e-01 0.000000e+00 0.000000e+00
1
Step 485000
Ar -8.770410e-01 0.000000e+00 0.000000e+00
1
Step 486000
Ar -9.880774e-01 0.000000e+00 0.000000e+00
1
Step 487000
Ar -9.792064e-01 0.000000e+00 0.000000e+00
1
Step 488000
Ar -1.029022e+00 0.000000e+00 0.000000e+00
1
Step 489000
Ar -8.782161e-01 0.000000e+00 0.000000e+00
1
Step 490000
Ar -8.831272e-01 0.000000e+00 0.000000e+00
1
Step 491000
Ar -8.793058e-01 0.000000e+00 0.000000e+00
1
Step 492000
Ar -1.065886e+00 0.000000e+00 0.000000e+00
1
Step 493000
Ar -1.068503e+00 0.000000e+00 0.000000e+00
1
Step 494000
Ar -1.060345e+00 0.000000e+00 0.000000e+00
1
Step 495000
Ar -1.145476e+00 0.000000e+00 0.000000e+00
1
Step 496000
Ar -1.105924e+00 0.000000e+00 0.000000e+00
1
Step 497000
Ar -8.897950e-01 0.000000e+00 0.000000e+00
1
Step 498000
Ar -1.012737e+00 0.000000e+00 0.000000e+00
1
Step 499000
Ar -1.111507e+00 0.000000e+00 0.000000e+00
1
Step 500000
Ar -1.085001e+00 0.000000e+00 0.000000e+00
1
Step 501000
Ar -1.112482e+00 0.000000e+00 0.000000e+00
1
Step 502000
Ar -8.832526e-01 0.000000e+00 0.000000e+00
1
Step 503000
Ar -8.803172e-01 0.000000e+00 0.000000e+00
1
Step 504000
Ar -8.807921e-01 0.000000e+00 0.000000e+00
1
Step 505000
Ar -8.795021e-01 0.000000e+00 0.000000e+00
1
Step 506000
Ar -8.788397e-01 0.000000e+00 0.000000e+00
1
Step 507000
Ar -1.148919e+00 0.000000e+00 0.000000e+00
1
Step 508000
Ar -9.377235e-01 0.000000e+00 0.000000e+00
1
Step 509000
Ar -1.003751e+00 0.000000e+00 0.000000e+00
1
Step 510000
Ar -8.914123e-01 0.000000e+00 0.000000e+00
1
Step 511000
Ar -7.925118e-01 0.000000e+00 0.000000e+00
1
Step 512000
Ar -1.101233e+00 0.000000e+00 0.000000e+00
1
Step 513000
Ar -1.102809e+00 0.000000e+00 0.000000e+00
1
Step 514000
Ar -1.100515e+00 0.000000e+00 0.000000e+00
1
Step 515000
Ar -8.774927e-01 0.000000e+00 0.000000e+00
1
Step 516000
Ar -9.349014e-01 0.000000e+00 0.000000e+00
1
Step 517000
Ar -9.293078e-01 0.000000e+00 0.000000e+00
1
Step 518000
Ar -9.292904e-01 0.000000e+00 0.000000e+00
1
Step 519000
Ar -1.024376e+00 0.000000e+00 0.000000e+00
1
Step 520000
Ar -9.516542e-01 0.000000e+00 0.000000e+00
1
Step 521000
Ar -1.197234e+00 0.000000e+00 0.000000e+00
1
Step 522000
Ar -8.530919e-01 0.000000e+00 0.000000e+00
1
Step 523000
Ar -9.995199e-01 0.000000e+00 0.000000e+00
1
Step 524000
Ar -8.562753e-01 0.000000e+00 0.000000e+00
1
Step 525000
Ar -8.583434e-01 0.000000e+00 0.000000e+00
1
Step 526000
Ar -8.575452e-01 0.000000e+00 0.000000e+00
1
Step 527000
Ar -9.461202e-01 0.000000e+00 0.000000e+00
1
Step 528000
Ar -8.794156e-01 0.000000e+00 0.000000e+00
1
Step 529000
Ar -8.566475e-01 0.000000e+00 0.000000e+00
1
Step 530000
Ar -1.036408e+00 0.000000e+00 0.000000e+00
1
Step 531000
Ar -1.105038e+00 0.000000e+00 0.000000e+00
1
Step 532000
Ar -9.562595e-01 0.000000e+00 0.000000e+00
1
Step 533000
Ar -1.109342e+00 0.000000e+00 0.000000e+00
1
Step 534000
Ar -9.682515e-01 0.000000e+00 0.000000e+00
1
Step 535000
Ar -1.080905e+00 0.000000e+00 0.000000e+00
1
Step 536000
Ar -8.862708e-01 0.000000e+00 0.000000e+00
1
Step 537000
Ar -1.051427e+00 0.000000e+00 0.000000e+00
1
Step 538000
Ar -1.013828e+00 0.000000e+00 0.000000e+00
1
Step 539000
Ar -6.817228e-01 0.000000e+00 0.000000e+00
1
Step 540000
Ar -9.253010e-01 0.000000e+00 0.000000e+00
1
Step 541000
Ar -9.676773e-01 0.000000e+00 0.000000e+00
1
Step 542000
Ar -1.154623e+00 0.000000e+00 0.000000e+00
1
Step 543000
Ar -1.012408e+00 0.000000e+00 0.000000e+00
1
Step 544000
Ar -9.137002e-01 0.000000e+00 0.000000e+00
1
Step 545000
Ar -1.030374e+00 0.000000e+00 0.000000e+00
1
Step 546000
Ar -1.108639e+00 0.000000e+00 0.000000e+00
1
Step 547000
Ar -1.026597e+00 0.000000e+00 0.000000e+00
1
Step 548000
Ar -9.673268e-01 0.000000e+00 0.000000e+00
1
Step 549000
Ar -9.042080e-01 0.000000e+00 0.000000e+00
1
Step 550000
Ar -9.863394e-01 0.000000e+00 0.000000e+00
1
Step 551000
Ar -9.656374e-01 0.000000e+00 0.000000e+00
1
Step 552000
Ar -1.079875e+00 0.000000e+00 0.000000e+00
1
Step 553000
Ar -9.506117e-01 0.000000e+00 0.000000e+00
1
Step 554000
Ar -1.021380e+00 0.000000e+00 0.000000e+00
1
Step 555000
Ar -9.033794e-01 0.000000e+00 0.000000e+00
1
Step 556000
Ar -1.152535e+00 0.000000e+00 0.000000e+00
1
Step 557000
Ar -1.230722e+00 0.000000e+00 0.000000e+00
1
Step 558000
Ar -9.919181e-01 0.000000e+00 0.000000e+00
1
Step 559000
Ar -1.013229e+00 0.000000e+00 0.000000e+00
1
Step 560000
Ar -9.758977e-01 0.000000e+00 0.000000e+00
1
Step 561000
Ar -9.806412e-01 0.000000e+00 0.000000e+00
1
Step 562000
Ar -8.032648e-01 0.000000e+00 0.000000e+00
1
Step 563000
Ar -4.487722e-01 0.000000e+00 0.000000e+00
1
Step 564000
Ar -1.026356e+00 0.000000e+00 0.000000e+00
1
Step 565000
Ar -1.182721e+00 0.000000e+00 0.000000e+00
1
Step 566000
Ar -7.826592e-01 0.000000e+00 0.000000e+00
1
Step 567000
Ar -9.727733e-01 0.000000e+00 0.000000e+00
1
Step 568000
Ar -1.104233e+00 0.000000e+00 0.000000e+00
1
Step 569000
Ar -9.590701e-01 0.000000e+00 0.000000e+00
1
Step 570000
Ar -8.901405e-01 0.000000e+00 0.000000e+00
1
Step 571000
Ar -1.058686e+00 0.000000e+00 0.000000e+00
1
Step 572000
Ar -9.867721e-01 0.000000e+00 0.000000e+00
1
Step 573000
Ar -8.678041e-01 0.000000e+00 0.000000e+00
1
Step 574000
Ar -8.837690e-01 0.000000e+00 0.000000e+00
1
Step 575000
Ar -1.208031e+00 0.000000e+00 0.000000e+00
1
Step 576000
Ar -8.685484e-01 0.000000e+00 0.000000e+00
1
Step 577000
Ar -1.109464e+00 0.000000e+00 0.000000e+00
1
Step 578000
Ar -7.888860e-01 0.000000e+00 0.000000e+00
1
Step 579000
Ar -9.618404e-01 0.000000e+00 0.000000e+00
1
Step 580000
Ar -1.114628e+00 0.000000e+00 0.000000e+00
1
Step 581000
Ar -1.112420e+00 0.000000e+00 0.000000e+00
1
Step 582000
Ar -1.112682e+00 0.000000e+00 0.000000e+00
1
Step 583000
Ar -7.356520e-01 0.000000e+00 0.000000e+00
1
Step 584000
Ar -8.573904e-01 0.000000e+00 0.000000e+00
1
Step 585000
Ar -8.593276e-01 0.000000e+00 0.000000e+00
1
Step 586000
Ar -8.719279e-01 0.000000e+00 0.000000e+00
1
Step 587000
Ar -8.485122e-01 0.000000e+00 0.000000e+00
1
Step 588000
Ar -9.770853e-01 0.000000e+00 0.000000e+00
1
Step 589000
Ar -9.752894e-01 0.000000e+00 0.000000e+00
1
Step 590000
Ar -9.823789e-01 0.000000e+00 0.000000e+00
1
Step 591000
Ar -1.097352e+00 0.000000e+00 0.000000e+00
1
Step 592000
Ar -1.072718e+00 0.000000e+00 0.000000e+00
1
Step 593000
Ar -8.291180e-01 0.000000e+00 0.000000e+00
1
Step 594000
Ar -8.705487e-01 0.000000e+00 0.000000e+00
1
Step 595000
Ar -1.038927e+00 0.000000e+00 0.000000e+00
1
Step 596000
Ar -8.483739e-01 0.000000e+00 0.000000e+00
1
Step 597000
Ar -8.613702e-01 0.000000e+00 0.000000e+00
1
Step 598000
Ar -8.565172e-01 0.000000e+00 0.000000e+00
1
Step 599000
Ar -8.608444e-01 0.000000e+00 0.000000e+00
1
Step 600000
Ar -8.576370e-01 0.000000e+00 0.000000e+00
1
Step 601000
Ar -8.587124e-01 0.000000e+00 0.000000e+00
1
Step 602000
Ar -8.544763e-01 0.000000e+00 0.000000e+00
1
Step 603000
Ar -1.104520e+00 0.000000e+00 0.000000e+00
1
Step 604000
Ar -7.837622e-01 0.000000e+00 0.000000e+00
1
Step 605000
Ar -7.850835e-01 0.000000e+00 0.000000e+00
1
Step 606000
Ar -7.858219e-01 0.000000e+00 0.000000e+00
1
Step 607000
Ar -7.847078e-01 0.000000e+00 0.000000e+00
1
Step 608000
Ar -7.821000e-01 0.000000e+00 0.000000e+00
1
Step 609000
Ar -9.774426e-01 0.000000e+00 0.000000e+00
1
Step 610000
Ar -7.744031e-01 0.000000e+00 0.000000e+00
1
Step 611000
Ar -7.497116e-01 0.000000e+00 0.000000e+00
1
Step 612000
Ar -1.023756e+00 0.000000e+00 0.000000e+00
1
Step 613000
Ar -7.200510e-01 0.000000e+00 0.000000e+00
1
Step 614000
Ar -1.115714e+00 0.000000e+00 0.000000e+00
1
Step 615000
Ar -1.110603e+00 0.000000e+00 0.000000e+00
1
Step 616000
Ar -1.117862e+00 0.000000e+00 0.000000e+00
1
Step 617000
Ar -1.123640e+00 0.000000e+00 0.000000e+00
1
Step 618000
Ar -1.118848e+00 0.000000e+00 0.000000e+00
1
Step 619000
Ar -1.120115e+00 0.000000e+00 0.000000e+00
1
Step 620000
Ar -1.117340e+00 0.000000e+00 0.000000e+00
1
Step 621000
Ar -9.682214e-01 0.000000e+00 0.000000e+00
1
Step 622000
Ar -8.557512e-01 0.000000e+00 0.000000e+00
1
Step 623000
Ar -8.506602e-01 0.000000e+00 0.000000e+00
1
Step 624000
Ar -1.027530e+00 0.000000e+00 0.000000e+00
1
Step 625000
Ar -1.255735e+00 0.000000e+00 0.000000e+00
1
Step 626000
Ar -2.848054e-01 0.000000e+00 0.000000e+00
1
Step 627000
Ar -1.150337e+00 0.000000e+00 0.000000e+00
1
Step 628000
Ar -1.100921e+00 0.000000e+00 0.000000e+00
1
Step 629000
Ar -1.032626e+00 0.000000e+00 0.000000e+00
1
Step 630000
Ar -1.091224e+00 0.000000e+00 0.000000e+00
1
Step 631000
Ar -9.590630e-01 0.000000e+00 0.000000e+00
1
Step 632000
Ar -1.063930e+00 0.000000e+00 0.000000e+00
1
Step 633000
Ar -1.053570e+00 0.000000e+00 0.000000e+00
1
Step 634000
Ar -1.031099e+00 0.000000e+00 0.000000e+00
1
Step 635000
Ar -9.400638e-01 0.000000e+00 0.000000e+00
1
Step 636000
Ar -8.819307e-01 0.000000e+00 0.000000e+00
1
Step 637000
Ar -8.554920e-01 0.000000e+00 0.000000e+00
1
Step 638000
Ar -8.588001e-01 0.000000e+00 0.000000e+00
1
Step 639000
Ar -8.575865e-01 0.000000e+00 0.000000e+00
1
Step 640000
Ar 8.494241e-01 0.000000e+00 0.000000e+00
1
Step 641000
Ar 7.533159e-01 0.000000e+00 0.000000e+00
1
Step 642000
Ar 9.730710e-01 0.000000e+00 0.000000e+00
1
Step 643000
Ar 7.883014e-01 0.000000e+00 0.000000e+00
1
Step 644000
Ar 9.004106e-01 0.000000e+00 0.000000e+00
1
Step 645000
Ar 7.984876e-01 0.000000e+00 0.000000e+00
1
Step 646000
Ar 8.383312e-01 0.000000e+00 0.000000e+00
1
Step 647000
Ar 5.846832e-01 0.000000e+00 0.000000e+00
1
Step 648000
Ar 6.155370e-01 0.000000e+00 0.000000e+00
1
Step 649000
Ar 1.001186e+00 0.000000e+00 0.000000e+00
1
Step 650000