1
Step 120000
Ar 1.134915e+00 0.000000e+00 0.000000e+00
1
Step 121000
Ar 9.843001e-01 0.000000e+00 0.000000e+00
1
Step 122000
Ar 7.981220e-01 0.000000e+00 0.000000e+00
1
Step 123000
Ar 7.050325e-01 0.000000e+00 0.000000e+00
1
Step 124000
Ar 7.518891e-01 0.000000e+00 0.000000e+00
1
Step 125000
Ar 1.124737e+00 0.000000e+00 0.000000e+00
1
Step 126000
Ar 1.150086e+00 0.000000e+00 0.000000e+00
1
Step 127000
Ar 1.218102e+00 0.000000e+00 0.000000e+00
1
Step 128000
Ar 9.673585e-01 0.000000e+00 0.000000e+00
1
Step 129000
Ar 1.065641e+00 0.000000e+00 0.000000e+00
1
Step 130000
Ar 8.699689e-01 0.000000e+00 0.000000e+00
1
Step 131000
Ar 1.009888e+00 0.000000e+00 0.000000e+00
1
Step 132000
Ar 9.698769e-01 0.000000e+00 0.000000e+00
1
Step 133000
Ar 9.497830e-01 0.000000e+00 0.000000e+00
1
Step 134000
Ar 9.999218e-01 0.000000e+00 0.000000e+00
1
Step 135000
Ar 1.049542e+00 0.000000e+00 0.000000e+00
1
Step 136000
Ar 1.107467e+00 0.000000e+00 0.000000e+00
1
Step 137000
Ar 1.064831e+00 0.000000e+00 0.000000e+00
1
Step 138000
Ar 1.074792e+00 0.000000e+00 0.000000e+00
1
Step 139000
Ar 1.102136e+00 0.000000e+00 0.000000e+00
1
Step 140000
Ar 1.068306e+00 0.000000e+00 0.000000e+00
1
Step 141000
Ar 8.871079e-01 0.000000e+00 0.000000e+00
1
Step 142000
Ar 9.061440e-01 0.000000e+00 0.000000e+00
1
Step 143000
Ar 1.015891e+00 0.000000e+00 0.000000e+00
1
Step 144000
Ar 9.647745e-01 0.000000e+00 0.000000e+00
1
Step 145000
Ar 9.731682e-01 0.000000e+00 0.000000e+00
1
Step 146000
Ar 1.028527e+00 0.000000e+00 0.000000e+00
1
Step 147000
Ar 1.031769e+00 0.000000e+00 0.000000e+00
1
Step 148000
Ar 9.906531e-01 0.000000e+00 0.000000e+00
1
Step 149000
Ar 1.022479e+00 0.000000e+00 0.000000e+00
1
Step 150000
Ar 9.207673e-01 0.000000e+00 0.000000e+00
1
Step 151000
Ar 7.581229e-01 0.000000e+00 0.000000e+00
1
Step 152000
Ar 8.546806e-01 0.000000e+00 0.000000e+00
1
Step 153000
Ar 8.310893e-01 0.000000e+00 0.000000e+00
1
Step 154000
Ar 7.576409e-01 0.000000e+00 0.000000e+00
1
Step 155000
Ar 8.090373e-01 0.000000e+00 0.000000e+00
1
Step 156000
Ar 1.037008e+00 0.000000e+00 0.000000e+00
1
Step 157000
Ar 1.006999e+00 0.000000e+00 0.000000e+00
1
Step 158000
Ar 9.978315e-01 0.000000e+00 0.000000e+00
1
Step 159000
Ar 1.009362e+00 0.000000e+00 0.000000e+00
1
Step 160000
Ar 1.018429e+00 0.000000e+00 0.000000e+00
1
Step 161000
Ar 9.535748e-01 0.000000e+00 0.000000e+00
1
Step 162000
Ar 9.480806e-01 0.000000e+00 0.000000e+00
1
Step 163000
Ar 9.483030e-01 0.000000e+00 0.000000e+00
1
Step 164000
Ar 8.938589e-01 0.000000e+00 0.000000e+00
1
Step 165000
Ar 8.481357e-01 0.000000e+00 0.000000e+00
1
Step 166000
Ar 8.363457e-01 0.000000e+00 0.000000e+00
1
Step 167000
Ar 8.318671e-01 0.000000e+00 0.000000e+00
1
Step 168000
Ar 8.298900e-01 0.000000e+00 0.000000e+00
1
Step 169000
Ar 8.237641e-01 0.000000e+00 0.000000e+00
1
Step 170000
Ar 9.422021e-01 0.000000e+00 0.000000e+00
1
Step 171000
Ar 1.003596e+00 0.000000e+00 0.000000e+00
1
Step 172000
Ar 9.968722e-01 0.000000e+00 0.000000e+00
1
Step 173000
Ar 1.008643e+00 0.000000e+00 0.000000e+00
1
Step 174000
Ar 1.004621e+00 0.000000e+00 0.000000e+00
1
Step 175000
Ar 9.904425e-01 0.000000e+00 0.000000e+00
1
Step 176000
Ar 1.005691e+00 0.000000e+00 0.000000e+00
1
Step 177000
Ar 8.536070e-01 0.000000e+00 0.000000e+00
1
Step 178000
Ar 8.577503e-01 0.000000e+00 0.000000e+00
1
Step 179000
Ar 8.913154e-01 0.000000e+00 0.000000e+00
1
Step 180000
Ar 9.077680e-01 0.000000e+00 0.000000e+00
1
Step 181000
Ar 9.544971e-01 0.000000e+00 0.000000e+00
1
Step 182000
Ar 9.559469e-01 0.000000e+00 0.000000e+00
1
Step 183000
Ar 9.557960e-01 0.000000e+00 0.000000e+00
1
Step 184000
Ar 8.904608e-01 0.000000e+00 0.000000e+00
1
Step 185000
Ar 8.990723e-01 0.000000e+00 0.000000e+00
1
Step 186000
Ar 8.283519e-01 0.000000e+00 0.000000e+00
1
Step 187000
Ar 8.256374e-01 0.000000e+00 0.000000e+00
1
Step 188000
Ar 8.284718e-01 0.000000e+00 0.000000e+00
1
Step 189000
Ar 8.152411e-01 0.000000e+00 0.000000e+00
1
Step 190000
Ar 8.571948e-01 0.000000e+00 0.000000e+00
1
Step 191000
Ar 8.854797e-01 0.000000e+00 0.000000e+00
1
Step 192000
Ar 8.868124e-01 0.000000e+00 0.000000e+00
1
Step 193000
Ar 8.814626e-01 0.000000e+00 0.000000e+00
1
Step 194000
Ar 8.877159e-01 0.000000e+00 0.000000e+00
1
Step 195000
Ar 8.877825e-01 0.000000e+00 0.000000e+00
1
Step 196000
Ar 6.098066e-01 0.000000e+00 0.000000e+00
1
Step 197000
Ar 7.570761e-01 0.000000e+00 0.000000e+00
1
Step 198000
Ar 8.246122e-01 0.000000e+00 0.000000e+00
1
Step 199000
Ar 7.791182e-01 0.000000e+00 0.000000e+00
1
Step 200000
Ar 7.497032e-01 0.000000e+00 0.000000e+00
1
Step 201000
Ar 8.235073e-01 0.000000e+00 0.000000e+00
1
Step 202000
Ar 8.235013e-01 0.000000e+00 0.000000e+00
1
Step 203000
Ar 8.266857e-01 0.000000e+00 0.000000e+00
1
Step 204000
Ar 8.342239e-01 0.000000e+00 0.000000e+00
1
Step 205000
Ar 8.338226e-01 0.000000e+00 0.000000e+00
1
Step 206000
Ar 7.756658e-01 0.000000e+00 0.000000e+00
1
Step 207000
Ar 7.635975e-01 0.000000e+00 0.000000e+00
1
Step 208000
Ar 7.866905e-01 0.000000e+00 0.000000e+00
1
Step 209000
Ar 7.985920e-01 0.000000e+00 0.000000e+00
1
Step 210000
Ar 7.628909e-01 0.000000e+00 0.000000e+00
1
Step 211000
Ar 7.080764e-01 0.000000e+00 0.000000e+00
1
Step 212000
Ar 7.132816e-01 0.000000e+00 0.000000e+00
1
Step 213000
Ar 7.342440e-01 0.000000e+00 0.000000e+00
1
Step 214000
Ar 5.776536e-01 0.000000e+00 0.000000e+00
1
Step 215000
Ar 6.687523e-01 0.000000e+00 0.000000e+00
1
Step 216000
Ar 2.690516e-01 0.000000e+00 0.000000e+00
1
Step 217000
Ar 6.320431e-01 0.000000e+00 0.000000e+00
1
Step 218000
Ar 6.467742e-01 0.000000e+00 0.000000e+00
1
Step 219000
Ar 6.348008e-01 0.000000e+00 0.000000e+00
1
Step 220000
Ar 6.064200e-01 0.000000e+00 0.000000e+00
1
Step 221000
Ar -1.056138e+00 0.000000e+00 0.000000e+00
1
Step 222000
Ar -1.120168e+00 0.000000e+00 0.000000e+00
1
Step 223000
Ar -1.085285e+00 0.000000e+00 0.000000e+00
1
Step 224000
Ar -8.931395e-01 0.000000e+00 0.000000e+00
1
Step 225000
Ar -7.289142e-01 0.000000e+00 0.000000e+00
1
Step 226000
Ar -5.984107e-01 0.000000e+00 0.000000e+00
1
Step 227000
Ar -1.029322e+00 0.000000e+00 0.000000e+00
1
Step 228000
Ar -9.979300e-01 0.000000e+00 0.000000e+00
1
Step 229000
Ar -1.068091e+00 0.000000e+00 0.000000e+00
1
Step 230000
Ar -9.610753e-01 0.000000e+00 0.000000e+00
1
Step 231000
Ar -9.843856e-01 0.000000e+00 0.000000e+00
1
Step 232000
Ar -1.174869e+00 0.000000e+00 0.000000e+00
1
Step 233000
Ar -1.120807e+00 0.000000e+00 0.000000e+00
1
Step 234000
Ar -1.101329e+00 0.000000e+00 0.000000e+00
1
Step 235000
Ar -1.170457e+00 0.000000e+00 0.000000e+00
1
Step 236000
Ar -1.036801e+00 0.000000e+00 0.000000e+00
1
Step 237000
Ar -1.151070e+00 0.000000e+00 0.000000e+00
1
Step 238000
Ar -1.005963e+00 0.000000e+00 0.000000e+00
1
Step 239000
Ar -9.284887e-01 0.000000e+00 0.000000e+00
1
Step 240000
Ar -9.261920e-01 0.000000e+00 0.000000e+00
1
Step 241000
Ar -1.045810e+00 0.000000e+00 0.000000e+00
1
Step 242000
Ar -9.773109e-01 0.000000e+00 0.000000e+00
1
Step 243000
Ar -1.042534e+00 0.000000e+00 0.000000e+00
1
Step 244000
Ar -1.127405e+00 0.000000e+00 0.000000e+00
1
Step 245000
Ar -1.038256e+00 0.000000e+00 0.000000e+00
1
Step 246000
Ar -1.013657e+00 0.000000e+00 0.000000e+00
1
Step 247000
Ar -1.026104e+00 0.000000e+00 0.000000e+00
1
Step 248000
Ar -1.025947e+00 0.000000e+00 0.000000e+00
1
Step 249000
Ar -1.049231e+00 0.000000e+00 0.000000e+00
1
Step 250000
Ar -1.086800e+00 0.000000e+00 0.000000e+00
1
Step 251000
Ar -1.148657e+00 0.000000e+00 0.000000e+00
1
Step 252000
Ar -1.149711e+00 0.000000e+00 0.000000e+00
1
Step 253000
Ar -1.102625e+00 0.000000e+00 0.000000e+00
1
Step 254000
Ar -1.060657e+00 0.000000e+00 0.000000e+00
1
Step 255000
Ar -1.056410e+00 0.000000e+00 0.000000e+00
1
Step 256000
Ar -1.020703e+00 0.000000e+00 0.000000e+00
1
Step 257000
Ar -9.750141e-01 0.000000e+00 0.000000e+00
1
Step 258000
Ar -9.953796e-01 0.000000e+00 0.000000e+00
1
Step 259000
Ar -9.831118e-01 0.000000e+00 0.000000e+00
1
Step 260000
Ar -9.850752e-01 0.000000e+00 0.000000e+00
1
Step 261000
Ar -9.689850e-01 0.000000e+00 0.000000e+00
1
Step 262000
Ar -8.094739e-01 0.000000e+00 0.000000e+00
1
Step 263000
Ar -8.168427e-01 0.000000e+00 0.000000e+00
1
Step 264000
Ar -8.937556e-01 0.000000e+00 0.000000e+00
1
Step 265000
Ar -8.893793e-01 0.000000e+00 0.000000e+00
1
Step 266000
Ar -1.002917e+00 0.000000e+00 0.000000e+00
1
Step 267000
Ar -1.022132e+00 0.000000e+00 0.000000e+00
1
Step 268000
Ar -1.021489e+00 0.000000e+00 0.000000e+00
1
Step 269000
Ar -1.012338e+00 0.000000e+00 0.000000e+00
1
Step 270000
Ar -1.067636e+00 0.000000e+00 0.000000e+00
1
Step 271000
Ar -1.121034e+00 0.000000e+00 0.000000e+00
1
Step 272000
Ar -1.114042e+00 0.000000e+00 0.000000e+00
1
Step 273000
Ar -1.106279e+00 0.000000e+00 0.000000e+00
1
Step 274000
Ar -1.106305e+00 0.000000e+00 0.000000e+00
1
Step 275000
Ar -1.112431e+00 0.000000e+00 0.000000e+00
1
Step 276000
Ar -1.022031e+00 0.000000e+00 0.000000e+00
1
Step 277000
Ar -9.379792e-01 0.000000e+00 0.000000e+00
1
Step 278000
Ar -9.906130e-01 0.000000e+00 0.000000e+00
1
Step 279000
Ar -9.076565e-01 0.000000e+00 0.000000e+00
1
Step 280000
Ar -9.029355e-01 0.000000e+00 0.000000e+00
1
Step 281000
Ar -8.144497e-01 0.000000e+00 0.000000e+00
1
Step 282000
Ar -7.914165e-01 0.000000e+00 0.000000e+00
1
Step 283000
Ar -8.530168e-01 0.000000e+00 0.000000e+00
1
Step 284000
Ar -8.114639e-01 0.000000e+00 0.000000e+00
1
Step 285000
Ar -8.421641e-01 0.000000e+00 0.000000e+00
1
Step 286000
Ar -9.505854e-01 0.000000e+00 0.000000e+00
1
Step 287000
Ar -9.420459e-01 0.000000e+00 0.000000e+00
1
Step 288000
Ar -9.476528e-01 0.000000e+00 0.000000e+00
1
Step 289000
Ar -9.391543e-01 0.000000e+00 0.000000e+00
1
Step 290000
Ar -8.675728e-01 0.000000e+00 0.000000e+00
1
Step 291000
Ar -1.030578e+00 0.000000e+00 0.000000e+00
1
Step 292000
Ar -1.126177e+00 0.000000e+00 0.000000e+00
1
Step 293000
Ar -1.128686e+00 0.000000e+00 0.000000e+00
1
Step 294000
Ar -1.121745e+00 0.000000e+00 0.000000e+00
1
Step 295000
Ar -1.128357e+00 0.000000e+00 0.000000e+00
1
Step 296000
Ar -1.145194e+00 0.000000e+00 0.000000e+00
1
Step 297000
Ar -1.146667e+00 0.000000e+00 0.000000e+00
1
Step 298000
Ar -1.020191e+00 0.000000e+00 0.000000e+00
1
Step 299000
Ar -1.016045e+00 0.000000e+00 0.000000e+00
1
Step 300000
Ar -1.021475e+00 0.000000e+00 0.000000e+00
1
Step 301000
Ar -8.510180e-01 0.000000e+00 0.000000e+00
1
Step 302000
Ar -8.523522e-01 0.000000e+00 0.000000e+00
1
Step 303000
Ar -8.595638e-01 0.000000e+00 0.000000e+00
1
Step 304000
Ar -8.578491e-01 0.000000e+00 0.000000e+00
1
Step 305000
Ar -8.509645e-01 0.000000e+00 0.000000e+00
1
Step 306000
Ar -9.393754e-01 0.000000e+00 0.000000e+00
1
Step 307000
Ar -9.482758e-01 0.000000e+00 0.000000e+00
1
Step 308000
Ar -9.460714e-01 0.000000e+00 0.000000e+00
1
Step 309000
Ar -1.004467e+00 0.000000e+00 0.000000e+00
1
Step 310000
Ar -9.379988e-01 0.000000e+00 0.000000e+00
1
Step 311000
Ar -1.010022e+00 0.000000e+00 0.000000e+00
1
Step 312000
Ar -9.945794e-01 0.000000e+00 0.000000e+00
1
Step 313000
Ar -9.879358e-01 0.000000e+00 0.000000e+00
1
Step 314000
Ar -1.096059e+00 0.000000e+00 0.000000e+00
1
Step 315000
Ar -1.102429e+00 0.000000e+00 0.000000e+00
1
Step 316000
Ar -9.490906e-01 0.000000e+00 0.000000e+00
1
Step 317000
Ar -9.548193e-01 0.000000e+00 0.000000e+00
1
Step 318000
Ar -9.513345e-01 0.000000e+00 0.000000e+00
1
Step 319000
Ar -9.494055e-01 0.000000e+00 0.000000e+00
1
Step 320000
Ar -1.005626e+00 0.000000e+00 0.000000e+00
1
Step 321000
Ar -9.195177e-01 0.000000e+00 0.000000e+00
1
Step 322000
Ar -9.149147e-01 0.000000e+00 0.000000e+00
1
Step 323000
Ar -3.139144e-01 0.000000e+00 0.000000e+00
1
Step 324000
Ar -6.906717e-01 0.000000e+00 0.000000e+00
1
Step 325000
Ar -6.822977e-01 0.000000e+00 0.000000e+00
1
Step 326000
Ar -7.971648e-01 0.000000e+00 0.000000e+00
1
Step 327000
Ar -7.908869e-01 0.000000e+00 0.000000e+00
1
Step 328000
Ar -8.087042e-01 0.000000e+00 0.000000e+00
1
Step 329000
Ar -8.114323e-01 0.000000e+00 0.000000e+00
1
Step 330000
Ar -7.886934e-01 0.000000e+00 0.000000e+00
1
Step 331000
Ar -7.973897e-01 0.000000e+00 0.000000e+00
1
Step 332000
Ar -8.201845e-01 0.000000e+00 0.000000e+00
1
Step 333000
Ar -8.275769e-01 0.000000e+00 0.000000e+00
1
Step 334000
Ar -8.003108e-01 0.000000e+00 0.000000e+00
1
Step 335000
Ar -8.181294e-01 0.000000e+00 0.000000e+00
1
Step 336000
Ar -7.649724e-01 0.000000e+00 0.000000e+00
1
Step 337000
Ar -7.729260e-01 0.000000e+00 0.000000e+00
1
Step 338000
Ar -8.302606e-01 0.000000e+00 0.000000e+00
1
Step 339000
Ar -8.265813e-01 0.000000e+00 0.000000e+00
1
Step 340000
Ar -7.610418e-01 0.000000e+00 0.000000e+00
1
Step 341000
Ar -1.151553e+00 0.000000e+00 0.000000e+00
1
Step 342000
Ar -1.237518e+00 0.000000e+00 0.000000e+00
1
Step 343000
Ar -1.009877e+00 0.000000e+00 0.000000e+00
1
Step 344000
Ar -9.169207e-01 0.000000e+00 0.000000e+00
1
Step 345000
Ar -9.111712e-01 0.000000e+00 0.000000e+00
1
Step 346000
Ar -1.074238e+00 0.000000e+00 0.000000e+00
1
Step 347000
Ar -1.294834e+00 0.000000e+00 0.000000e+00
1
Step 348000
Ar -1.181625e+00 0.000000e+00 0.000000e+00
1
Step 349000
Ar -1.199924e+00 0.000000e+00 0.000000e+00
1
Step 350000
Ar -1.220807e+00 0.000000e+00 0.000000e+00
1
Step 351000
Ar -1.151332e+00 0.000000e+00 0.000000e+00
1
Step 352000
Ar -1.180678e+00 0.000000e+00 0.000000e+00
1
Step 353000
Ar -1.195243e+00 0.000000e+00 0.000000e+00
1
Step 354000
Ar -1.332822e+00 0.000000e+00 0.000000e+00
1
Step 355000
Ar -1.241857e+00 0.000000e+00 0.000000e+00
1
Step 356000
Ar -1.284050e+00 0.000000e+00 0.000000e+00
1
Step 357000
Ar -1.274281e+00 0.000000e+00 0.000000e+00
1
Step 358000
Ar -1.286822e+00 0.000000e+00 0.000000e+00
1
Step 359000
Ar -1.271852e+00 0.000000e+00 0.000000e+00
1
Step 360000
Ar -9.478803e-01 0.000000e+00 0.000000e+00
1
Step 361000
Ar -1.026994e+00 0.000000e+00 0.000000e+00
1
Step 362000
Ar -8.025918e-01 0.000000e+00 0.000000e+00
1
Step 363000
Ar -8.024252e-01 0.000000e+00 0.000000e+00
1
Step 364000
Ar -8.066200e-01 0.000000e+00 0.000000e+00
1
Step 365000
Ar -7.988489e-01 0.000000e+00 0.000000e+00
1
Step 366000
Ar -1.193049e+00 0.000000e+00 0.000000e+00
1
Step 367000
Ar -1.187421e+00 0.000000e+00 0.000000e+00
1
Step 368000
Ar -1.186090e+00 0.000000e+00 0.000000e+00
1
Step 369000
Ar -1.179204e+00 0.000000e+00 0.000000e+00
1
Step 370000
Ar -9.536137e-01 0.000000e+00 0.000000e+00
1
Step 371000
Ar -1.150613e+00 0.000000e+00 0.000000e+00
1
Step 372000
Ar -1.142685e+00 0.000000e+00 0.000000e+00
1
Step 373000
Ar -1.028447e+00 0.000000e+00 0.000000e+00
1
Step 374000
Ar -1.228650e+00 0.000000e+00 0.000000e+00
1
Step 375000
Ar -1.013152e+00 0.000000e+00 0.000000e+00
1
Step 376000
Ar -1.186885e+00 0.000000e+00 0.000000e+00
1
Step 377000
Ar -1.135254e+00 0.000000e+00 0.000000e+00
1
Step 378000
Ar -1.337034e+00 0.000000e+00 0.000000e+00
1
Step 379000
Ar -1.092035e+00 0.000000e+00 0.000000e+00
1
Step 380000
Ar -1.144022e+00 0.000000e+00 0.000000e+00
1
Step 381000
Ar -1.228143e+00 0.000000e+00 0.000000e+00
1
Step 382000
Ar -1.230297e+00 0.000000e+00 0.000000e+00
1
Step 383000
Ar -1.181247e+00 0.000000e+00 0.000000e+00
1
Step 384000
Ar -1.123513e+00 0.000000e+00 0.000000e+00
1
Step 385000
Ar -1.027723e+00 0.000000e+00 0.000000e+00
1
Step 386000
Ar -1.054772e+00 0.000000e+00 0.000000e+00
1
Step 387000
Ar -1.154447e+00 0.000000e+00 0.000000e+00
1
Step 388000
Ar -1.154874e+00 0.000000e+00 0.000000e+00
1
Step 389000
Ar -1.274342e+00 0.000000e+00 0.000000e+00
1
Step 390000
Ar -1.277700e+00 0.000000e+00 0.000000e+00
1
Step 391000
Ar -1.319117e+00 0.000000e+00 0.000000e+00
1
Step 392000
Ar -1.290387e+00 0.000000e+00 0.000000e+00
1
Step 393000
Ar -1.289029e+00 0.000000e+00 0.000000e+00
1
Step 394000
Ar -1.286037e+00 0.000000e+00 0.000000e+00
1
Step 395000
Ar -1.342329e+00 0.000000e+00 0.000000e+00
1
Step 396000
Ar -9.731602e-01 0.000000e+00 0.000000e+00
1
Step 397000
Ar -9.745145e-01 0.000000e+00 0.000000e+00
1
Step 398000
Ar -9.926660e-01 0.000000e+00 0.000000e+00
1
Step 399000
Ar -9.749214e-01 0.000000e+00 0.000000e+00
1
Step 400000
Ar -9.985169e-01 0.000000e+00 0.000000e+00
1
Step 401000
Ar -9.717963e-01 0.000000e+00 0.000000e+00
1
Step 402000
Ar -9.723933e-01 0.000000e+00 0.000000e+00
1
Step 403000
Ar -9.794640e-01 0.000000e+00 0.000000e+00
1
Step 404000
Ar -9.759380e-01 0.000000e+00 0.000000e+00
1
Step 405000
Ar -9.689277e-01 0.000000e+00 0.000000e+00
1
Step 406000
Ar -9.696887e-01 0.000000e+00 0.000000e+00
1
Step 407000
Ar -1.058395e+00 0.000000e+00 0.000000e+00
1
Step 408000
Ar -1.077497e+00 0.000000e+00 0.000000e+00
1
Step 409000
Ar -1.075795e+00 0.000000e+00 0.000000e+00
1
Step 410000
Ar -1.078477e+00 0.000000e+00 0.000000e+00
1
Step 411000
Ar -1.047156e+00 0.000000e+00 0.000000e+00
1
Step 412000
Ar -1.040263e+00 0.000000e+00 0.000000e+00
1
Step 413000
Ar -1.047350e+00 0.000000e+00 0.000000e+00
1
Step 414000
Ar -1.046351e+00 0.000000e+00 0.000000e+00
1
Step 415000
Ar -1.050519e+00 0.000000e+00 0.000000e+00
1
Step 416000
Ar -6.206623e-01 0.000000e+00 0.000000e+00
1
Step 417000
Ar -5.592616e-01 0.000000e+00 0.000000e+00
1
Step 418000
Ar -6.042930e-01 0.000000e+00 0.000000e+00
1
Step 419000
Ar -3.996192e-01 0.000000e+00 0.000000e+00
1
Step 420000
Ar -6.122614e-01 0.000000e+00 0.000000e+00
1
Step 421000
Ar -6.278341e-01 0.000000e+00 0.000000e+00
1
Step 422000
Ar -6.579485e-01 0.000000e+00 0.000000e+00
1
Step 423000
Ar -6.695673e-01 0.000000e+00 0.000000e+00
1
Step 424000
Ar -6.286812e-01 0.000000e+00 0.000000e+00
1
Step 425000
Ar -6.510041e-01 0.000000e+00 0.000000e+00
1
Step 426000
Ar -6.642558e-01 0.000000e+00 0.000000e+00
1
Step 427000
Ar -6.646829e-01 0.000000e+00 0.000000e+00
1
Step 428000
Ar -7.078764e-01 0.000000e+00 0.000000e+00
1
Step 429000
Ar -7.020523e-01 0.000000e+00 0.000000e+00
1
Step 430000
Ar -7.460064e-01 0.000000e+00 0.000000e+00
1
Step 431000
Ar -7.118285e-01 0.000000e+00 0.000000e+00
1
Step 432000
Ar -7.197078e-01 0.000000e+00 0.000000e+00
1
Step 433000
Ar -8.267962e-01 0.000000e+00 0.000000e+00
1
Step 434000
Ar -6.902472e-01 0.000000e+00 0.000000e+00
1
Step 435000
Ar -6.940379e-01 0.000000e+00 0.000000e+00
1
Step 436000
Ar -7.775188e-01 0.000000e+00 0.000000e+00
1
Step 437000
Ar -7.816391e-01 0.000000e+00 0.000000e+00
1
Step 438000
Ar -7.710615e-01 0.000000e+00 0.000000e+00
1
Step 439000
Ar -7.078988e-01 0.000000e+00 0.000000e+00
1
Step 440000
Ar -7.223036e-01 0.000000e+00 0.000000e+00
1
Step 441000
Ar -7.112019e-01 0.000000e+00 0.000000e+00
1
Step 442000
Ar -7.085138e-01 0.000000e+00 0.000000e+00
1
Step 443000
Ar -6.654911e-01 0.000000e+00 0.000000e+00
1
Step 444000
Ar -6.680068e-01 0.000000e+00 0.000000e+00
1
Step 445000
Ar -6.711793e-01 0.000000e+00 0.000000e+00
1
Step 446000
Ar -6.377987e-01 0.000000e+00 0.000000e+00
1
Step 447000
Ar -6.295710e-01 0.000000e+00 0.000000e+00
1
Step 448000
Ar -5.646626e-01 0.000000e+00 0.000000e+00
1
Step 449000
Ar -5.333563e-01 0.000000e+00 0.000000e+00
1
Step 450000
Ar -5.617956e-01 0.000000e+00 0.000000e+00
1
Step 451000
Ar -5.202169e-01 0.000000e+00 0.000000e+00
1
Step 452000
Ar -4.487503e-01 0.000000e+00 0.000000e+00
1
Step 453000
Ar -5.389607e-01 0.000000e+00 0.000000e+00
1
Step 454000
Ar -2.592878e-01 0.000000e+00 0.000000e+00
1
Step 455000
Ar 5.863090e-01 0.000000e+00 0.000000e+00
1
Step 456000
Ar 1.108031e+00 0.000000e+00 0.000000e+00
1
Step 457000
Ar 1.155081e+00 0.000000e+00 0.000000e+00
1
Step 458000
Ar 1.195703e+00 0.000000e+00 0.000000e+00
1
Step 459000
Ar 1.236515e+00 0.000000e+00 0.000000e+00
1
Step 460000
Ar 1.174167e+00 0.000000e+00 0.000000e+00
1
Step 461000
Ar 1.036307e+00 0.000000e+00 0.000000e+00
1
Step 462000
Ar 1.042219e+00 0.000000e+00 0.000000e+00
1
Step 463000
Ar 1.040680e+00 0.000000e+00 0.000000e+00
1
Step 464000
Ar 1.032764e+00 0.000000e+00 0.000000e+00
1
Step 465000
Ar 1.032943e+00 0.000000e+00 0.000000e+00
1
Step 466000
Ar 9.589683e-01 0.000000e+00 0.000000e+00
1
Step 467000
Ar 9.824730e-01 0.000000e+00 0.000000e+00
1
Step 468000
Ar 1.059449e+00 0.000000e+00 0.000000e+00
1
Step 469000
Ar 1.040589e+00 0.000000e+00 0.000000e+00
1
Step 470000
Ar 1.097698e+00 0.000000e+00 0.000000e+00
1
Step 471000
Ar 1.005279e+00 0.000000e+00 0.000000e+00
1
Step 472000
Ar 1.005708e+00 0.000000e+00 0.000000e+00
1
Step 473000
Ar 1.006225e+00 0.000000e+00 0.000000e+00
1
Step 474000
Ar 9.604943e-01 0.000000e+00 0.000000e+00
1
Step 475000
Ar 9.504604e-01 0.000000e+00 0.000000e+00
1
Step 476000
Ar 9.644141e-01 0.000000e+00 0.000000e+00
1
Step 477000
Ar 9.619961e-01 0.000000e+00 0.000000e+00
1
Step 478000
Ar 1.008850e+00 0.000000e+00 0.000000e+00
1
Step 479000
Ar 1.006985e+00 0.000000e+00 0.000000e+00
1
Step 480000
Ar 1.007404e+00 0.000000e+00 0.000000e+00
1
Step 481000
Ar 8.796946e-01 0.000000e+00 0.000000e+00
1
Step 482000
Ar 8.841633e-01 0.000000e+00 0.000000e+00
1
Step 483000
Ar 8.767124e-01 0.000000e+00 0.000000e+00
1
Step 484000
Ar 8.845831e-01 0.000000e+00 0.000000e+00
1
Step 485000
Ar 9.960247e-01 0.000000e+00 0.000000e+00
1
Step 486000
Ar 7.086489e-01 0.000000e+00 0.000000e+00
1
Step 487000
Ar 7.168124e-01 0.000000e+00 0.000000e+00
1
Step 488000
Ar 7.208271e-01 0.000000e+00 0.000000e+00
1
Step 489000
Ar 7.042287e-01 0.000000e+00 0.000000e+00
1
Step 490000
Ar 7.300893e-01 0.000000e+00 0.000000e+00
1
Step 491000
Ar 7.806279e-01 0.000000e+00 0.000000e+00
1
Step 492000
Ar 7.872127e-01 0.000000e+00 0.000000e+00
1
Step 493000
Ar 7.856755e-01 0.000000e+00 0.000000e+00
1
Step 494000
Ar 8.207979e-01 0.000000e+00 0.000000e+00
1
Step 495000
Ar 8.224261e-01 0.000000e+00 0.000000e+00
1
Step 496000
Ar 7.790186e-01 0.000000e+00 0.000000e+00
1
Step 497000
Ar 7.934868e-01 0.000000e+00 0.000000e+00
1
Step 498000
Ar 7.992729e-01 0.000000e+00 0.000000e+00
1
Step 499000
Ar 7.755376e-01 0.000000e+00 0.000000e+00
1
Step 500000
Ar 9.630968e-01 0.000000e+00 0.000000e+00
1
Step 501000
Ar 7.003773e-01 0.000000e+00 0.000000e+00
1
Step 502000
Ar 6.904976e-01 0.000000e+00 0.000000e+00
1
Step 503000
Ar 6.980856e-01 0.000000e+00 0.000000e+00
1
Step 504000
Ar 6.900828e-01 0.000000e+00 0.000000e+00
1
Step 505000
Ar 7.342177e-01 0.000000e+00 0.000000e+00
1
Step 506000
Ar 7.828315e-01 0.000000e+00 0.000000e+00
1
Step 507000
Ar 7.886128e-01 0.000000e+00 0.000000e+00
1
Step 508000
Ar 7.847185e-01 0.000000e+00 0.000000e+00
1
Step 509000
Ar 7.767739e-01 0.000000e+00 0.000000e+00
1
Step 510000
Ar 7.804409e-01 0.000000e+00 0.000000e+00
1
Step 511000
Ar 7.953522e-01 0.000000e+00 0.000000e+00
1
Step 512000
Ar 8.419699e-01 0.000000e+00 0.000000e+00
1
Step 513000
Ar 7.973782e-01 0.000000e+00 0.000000e+00
1
Step 514000
Ar 7.966602e-01 0.000000e+00 0.000000e+00
1
Step 515000
Ar 7.892130e-01 0.000000e+00 0.000000e+00
1
Step 516000
Ar 8.060342e-01 0.000000e+00 0.000000e+00
1
Step 517000
Ar 9.302251e-01 0.000000e+00 0.000000e+00
1
Step 518000
Ar 9.283573e-01 0.000000e+00 0.000000e+00
1
Step 519000
Ar 9.314441e-01 0.000000e+00 0.000000e+00
1
Step 520000
Ar 1.085434e+00 0.000000e+00 0.000000e+00
1
Step 521000
Ar 1.062099e+00 0.000000e+00 0.000000e+00
1
Step 522000
Ar 1.059562e+00 0.000000e+00 0.000000e+00
1
Step 523000
Ar 1.017282e+00 0.000000e+00 0.000000e+00
1
Step 524000
Ar 1.061280e+00 0.000000e+00 0.000000e+00
1
Step 525000
Ar 1.034089e+00 0.000000e+00 0.000000e+00
1
Step 526000
Ar 1.115740e+00 0.000000e+00 0.000000e+00
1
Step 527000
Ar 1.114539e+00 0.000000e+00 0.000000e+00
1
Step 528000
Ar 1.112474e+00 0.000000e+00 0.000000e+00
1
Step 529000
Ar 1.142137e+00 0.000000e+00 0.000000e+00
1
Step 530000
Ar 1.162425e+00 0.000000e+00 0.000000e+00
1
Step 531000
Ar 1.116287e+00 0.000000e+00 0.000000e+00
1
Step 532000
Ar 1.108943e+00 0.000000e+00 0.000000e+00
1
Step 533000
Ar 1.112372e+00 0.000000e+00 0.000000e+00
1
Step 534000
Ar 1.058514e+00 0.000000e+00 0.000000e+00
1
Step 535000
Ar 1.269975e+00 0.000000e+00 0.000000e+00
1
Step 536000
Ar 1.211143e+00 0.000000e+00 0.000000e+00
1
Step 537000
Ar 1.220587e+00 0.000000e+00 0.000000e+00
1
Step 538000
Ar 1.214252e+00 0.000000e+00 0.000000e+00
1
Step 539000
Ar 1.226432e+00 0.000000e+00 0.000000e+00
1
Step 540000
Ar 1.250694e+00 0.000000e+00 0.000000e+00
1
Step 541000
Ar 1.145083e+00 0.000000e+00 0.000000e+00
1
Step 542000
Ar 1.146793e+00 0.000000e+00 0.000000e+00
1
Step 543000
Ar 1.147873e+00 0.000000e+00 0.000000e+00
1
Step 544000
Ar 1.144048e+00 0.000000e+00 0.000000e+00
1
Step 545000
Ar 1.135713e+00 0.000000e+00 0.000000e+00
1
Step 546000
Ar 1.111214e+00 0.000000e+00 0.000000e+00
1
Step 547000
Ar 1.111173e+00 0.000000e+00 0.000000e+00
1
Step 548000
Ar 1.105178e+00 0.000000e+00 0.000000e+00
1
Step 549000
Ar 1.107504e+00 0.000000e+00 0.000000e+00
1
Step 550000
Ar 1.068877e+00 0.000000e+00 0.000000e+00
1
Step 551000
Ar 9.277928e-01 0.000000e+00 0.000000e+00
1
Step 552000
Ar 8.391323e-01 0.000000e+00 0.000000e+00
1
Step 553000
Ar 8.433204e-01 0.000000e+00 0.000000e+00
1
Step 554000
Ar 9.878892e-01 0.000000e+00 0.000000e+00
1
Step 555000
Ar 8.009100e-01 0.000000e+00 0.000000e+00
1
Step 556000
Ar 7.715317e-01 0.000000e+00 0.000000e+00
1
Step 557000
Ar 8.779392e-01 0.000000e+00 0.000000e+00
1
Step 558000
Ar 8.826295e-01 0.000000e+00 0.000000e+00
1
Step 559000
Ar 8.752129e-01 0.000000e+00 0.000000e+00
1
Step 560000
Ar 8.127546e-01 0.000000e+00 0.000000e+00
1
Step 561000
Ar 9.359916e-01 0.000000e+00 0.000000e+00
1
Step 562000
Ar 9.344927e-01 0.000000e+00 0.000000e+00
1
Step 563000
Ar 9.408488e-01 0.000000e+00 0.000000e+00
1
Step 564000
Ar 9.324994e-01 0.000000e+00 0.000000e+00
1
Step 565000
Ar 9.341542e-01 0.000000e+00 0.000000e+00
1
Step 566000
Ar 8.322292e-01 0.000000e+00 0.000000e+00
1
Step 567000
Ar 1.019885e+00 0.000000e+00 0.000000e+00
1
Step 568000
Ar 1.003117e+00 0.000000e+00 0.000000e+00
1
Step 569000
Ar 9.166651e-01 0.000000e+00 0.000000e+00
1
Step 570000
Ar 9.817355e-01 0.000000e+00 0.000000e+00
1
Step 571000
Ar 1.104025e+00 0.000000e+00 0.000000e+00
1
Step 572000
Ar 1.109671e+00 0.000000e+00 0.000000e+00
1
Step 573000
Ar 1.115994e+00 0.000000e+00 0.000000e+00
1
Step 574000
Ar 1.081760e+00 0.000000e+00 0.000000e+00
1
Step 575000
Ar 1.111429e+00 0.000000e+00 0.000000e+00
1
Step 576000
Ar 1.149389e+00 0.000000e+00 0.000000e+00
1
Step 577000
Ar 1.147776e+00 0.000000e+00 0.000000e+00
1
Step 578000
Ar 1.156111e+00 0.000000e+00 0.000000e+00
1
Step 579000
Ar 1.150309e+00 0.000000e+00 0.000000e+00
1
Step 580000
Ar 1.149332e+00 0.000000e+00 0.000000e+00
1
Step 581000
Ar 1.187937e+00 0.000000e+00 0.000000e+00
1
Step 582000
Ar 1.230960e+00 0.000000e+00 0.000000e+00
1
Step 583000
Ar 1.228160e+00 0.000000e+00 0.000000e+00
1
Step 584000
Ar 1.235362e+00 0.000000e+00 0.000000e+00
1
Step 585000
Ar 1.203611e+00 0.000000e+00 0.000000e+00
1
Step 586000
Ar 1.285263e+00 0.000000e+00 0.000000e+00
1
Step 587000
Ar 1.307190e+00 0.000000e+00 0.000000e+00
1
Step 588000
Ar 1.320232e+00 0.000000e+00 0.000000e+00
1
Step 589000
Ar 1.147016e+00 0.000000e+00 0.000000e+00
1
Step 590000
Ar 1.299359e+00 0.000000e+00 0.000000e+00
1
Step 591000
Ar 1.217765e+00 0.000000e+00 0.000000e+00
1
Step 592000
Ar 1.225089e+00 0.000000e+00 0.000000e+00
1
Step 593000
Ar 1.231403e+00 0.000000e+00 0.000000e+00
1
Step 594000
Ar 1.226437e+00 0.000000e+00 0.000000e+00
1
Step 595000
Ar 1.212720e+00 0.000000e+00 0.000000e+00
1
Step 596000
Ar 1.189109e+00 0.000000e+00 0.000000e+00
1
Step 597000
Ar 1.188557e+00 0.000000e+00 0.000000e+00
1
Step 598000
Ar 1.185644e+00 0.000000e+00 0.000000e+00
1
Step 599000
Ar 1.188772e+00 0.000000e+00 0.000000e+00
1
Step 600000
Ar 1.187076e+00 0.000000e+00 0.000000e+00
1
Step 601000
Ar 1.111867e+00 0.000000e+00 0.000000e+00
1
Step 602000
Ar 1.123502e+00 0.000000e+00 0.000000e+00
1
Step 603000
Ar 1.087693e+00 0.000000e+00 0.000000e+00
1
Step 604000
Ar 1.061171e+00 0.000000e+00 0.000000e+00
1
Step 605000
Ar 1.057020e+00 0.000000e+00 0.000000e+00
1
Step 606000
Ar 1.020743e+00 0.000000e+00 0.000000e+00
1
Step 607000
Ar 1.024050e+00 0.000000e+00 0.000000e+00
1
Step 608000
Ar 9.207314e-01 0.000000e+00 0.000000e+00
1
Step 609000
Ar 8.790317e-01 0.000000e+00 0.000000e+00
1
Step 610000
Ar 8.802726e-01 0.000000e+00 0.000000e+00
1
Step 611000
Ar 8.600540e-01 0.000000e+00 0.000000e+00
1
Step 612000
Ar 8.390555e-01 0.000000e+00 0.000000e+00
1
Step 613000
Ar 8.891351e-01 0.000000e+00 0.000000e+00
1
Step 614000
Ar 1.004157e+00 0.000000e+00 0.000000e+00
1
Step 615000
Ar 1.008093e+00 0.000000e+00 0.000000e+00
1
Step 616000
Ar 1.322730e+00 0.000000e+00 0.000000e+00
1
Step 617000
Ar 1.186236e+00 0.000000e+00 0.000000e+00
1
Step 618000
Ar 1.146086e+00 0.000000e+00 0.000000e+00
1
Step 619000
Ar 1.087355e+00 0.000000e+00 0.000000e+00
1
Step 620000
Ar 1.196161e+00 0.000000e+00 0.000000e+00
1
Step 621000
Ar 1.141606e+00 0.000000e+00 0.000000e+00
1
Step 622000
Ar 1.104019e+00 0.000000e+00 0.000000e+00
1
Step 623000
Ar 8.401956e-01 0.000000e+00 0.000000e+00
1
Step 624000
Ar 9.294704e-01 0.000000e+00 0.000000e+00
1
Step 625000
Ar 9.164512e-01 0.000000e+00 0.000000e+00
1
Step 626000
Ar 8.344733e-01 0.000000e+00 0.000000e+00
1
Step 627000
Ar 8.401837e-01 0.000000e+00 0.000000e+00
1
Step 628000
Ar 9.289763e-01 0.000000e+00 0.000000e+00
1
Step 629000
Ar 9.643249e-01 0.000000e+00 0.000000e+00
1
Step 630000
Ar 9.560835e-01 0.000000e+00 0.000000e+00
1
Step 631000
Ar 8.421433e-01 0.000000e+00 0.000000e+00
1
Step 632000
Ar 9.663369e-01 0.000000e+00 0.000000e+00
1
Step 633000
Ar 9.871694e-01 0.000000e+00 0.000000e+00
1
Step 634000
Ar 8.608321e-01 0.000000e+00 0.000000e+00
1
Step 635000
Ar 8.433266e-01 0.000000e+00 0.000000e+00
1
Step 636000
Ar 9.288140e-01 0.000000e+00 0.000000e+00
1
Step 637000
Ar 6.380680e-01 0.000000e+00 0.000000e+00
1
Step 638000
Ar 6.257111e-01 0.000000e+00 0.000000e+00
1
Step 639000
Ar 6.307524e-01 0.000000e+00 0.000000e+00
1
Step 640000
Ar 6.187377e-01 0.000000e+00 0.000000e+00
1
Step 641000
Ar 7.131395e-01 0.000000e+00 0.000000e+00
1
Step 642000
Ar 6.808670e-01 0.000000e+00 0.000000e+00
1
Step 643000
Ar 7.098532e-01 0.000000e+00 0.000000e+00
1
Step 644000
Ar 6.924947e-01 0.000000e+00 0.000000e+00
1
Step 645000
Ar 7.012573e-01 0.000000e+00 0.000000e+00
1
Step 646000
Ar 6.493957e-01 0.000000e+00 0.000000e+00
1
Step 647000
Ar 6.418571e-01 0.000000e+00 0.000000e+00
1
Step 648000
Ar 6.469541e-01 0.000000e+00 0.000000e+00
1
Step 649000
Ar 6.534161e-01 0.000000e+00 0.000000e+00
1
Step 650000
Ar 6.421745e-01 0.000000e+00 0.000000e+00
1
Step 651000