1
Step 120000
Ar 1.054192e+00 0.000000e+00 0.000000e+00
1
Step 121000
Ar 1.024813e+00 0.000000e+00 0.000000e+00
1
Step 122000
Ar 1.200139e+00 0.000000e+00 0.000000e+00
1
Step 123000
Ar 1.015731e+00 0.000000e+00 0.000000e+00
1
Step 124000
Ar 1.048272e+00 0.000000e+00 0.000000e+00
1
Step 125000
Ar 1.169075e+00 0.000000e+00 0.000000e+00
1
Step 126000
Ar 1.199206e+00 0.000000e+00 0.000000e+00
1
Step 127000
Ar 1.183099e+00 0.000000e+00 0.000000e+00
1
Step 128000
Ar 1.252047e+00 0.000000e+00 0.000000e+00
1
Step 129000
Ar 1.185512e+00 0.000000e+00 0.000000e+00
1
Step 130000
Ar 1.225675e+00 0.000000e+00 0.000000e+00
1
Step 131000
Ar 1.214715e+00 0.000000e+00 0.000000e+00
1
Step 132000
Ar 1.203034e+00 0.000000e+00 0.000000e+00
1
Step 133000
Ar 1.188180e+00 0.000000e+00 0.000000e+00
1
Step 134000
Ar 1.192821e+00 0.000000e+00 0.000000e+00
1
Step 135000
Ar 1.208417e+00 0.000000e+00 0.000000e+00
1
Step 136000
Ar 1.250112e+00 0.000000e+00 0.000000e+00
1
Step 137000
Ar 1.228142e+00 0.000000e+00 0.000000e+00
1
Step 138000
Ar 1.229614e+00 0.000000e+00 0.000000e+00
1
Step 139000
Ar 1.188011e+00 0.000000e+00 0.000000e+00
1
Step 140000
Ar 1.185767e+00 0.000000e+00 0.000000e+00
1
Step 141000
Ar 1.224943e+00 0.000000e+00 0.000000e+00
1
Step 142000
Ar 1.251838e+00 0.000000e+00 0.000000e+00
1
Step 143000
Ar 1.223839e+00 0.000000e+00 0.000000e+00
1
Step 144000
Ar 1.208374e+00 0.000000e+00 0.000000e+00
1
Step 145000
Ar 1.190723e+00 0.000000e+00 0.000000e+00
1
Step 146000
Ar 1.181981e+00 0.000000e+00 0.000000e+00
1
Step 147000
Ar 1.263231e+00 0.000000e+00 0.000000e+00
1
Step 148000
Ar 1.221744e+00 0.000000e+00 0.000000e+00
1
Step 149000
Ar 1.053099e+00 0.000000e+00 0.000000e+00
1
Step 150000
Ar 9.200833e-01 0.000000e+00 0.000000e+00
1
Step 151000
Ar 9.716720e-01 0.000000e+00 0.000000e+00
1
Step 152000
Ar 9.047411e-01 0.000000e+00 0.000000e+00
1
Step 153000
Ar 9.040140e-01 0.000000e+00 0.000000e+00
1
Step 154000
Ar 8.416862e-01 0.000000e+00 0.000000e+00
1
Step 155000
Ar 9.366326e-01 0.000000e+00 0.000000e+00
1
Step 156000
Ar 9.300696e-01 0.000000e+00 0.000000e+00
1
Step 157000
Ar 9.384747e-01 0.000000e+00 0.000000e+00
1
Step 158000
Ar 7.990298e-01 0.000000e+00 0.000000e+00
1
Step 159000
Ar 8.972356e-01 0.000000e+00 0.000000e+00
1
Step 160000
Ar 8.145260e-01 0.000000e+00 0.000000e+00
1
Step 161000
Ar 9.287907e-01 0.000000e+00 0.000000e+00
1
Step 162000
Ar 9.183216e-01 0.000000e+00 0.000000e+00
1
Step 163000
Ar 9.232972e-01 0.000000e+00 0.000000e+00
1
Step 164000
Ar 9.446570e-01 0.000000e+00 0.000000e+00
1
Step 165000
Ar 9.719719e-01 0.000000e+00 0.000000e+00
1
Step 166000
Ar 9.470264e-01 0.000000e+00 0.000000e+00
1
Step 167000
Ar 9.589528e-01 0.000000e+00 0.000000e+00
1
Step 168000
Ar 9.587814e-01 0.000000e+00 0.000000e+00
1
Step 169000
Ar 9.731945e-01 0.000000e+00 0.000000e+00
1
Step 170000
Ar 9.517752e-01 0.000000e+00 0.000000e+00
1
Step 171000
Ar 9.501891e-01 0.000000e+00 0.000000e+00
1
Step 172000
Ar 9.650056e-01 0.000000e+00 0.000000e+00
1
Step 173000
Ar 9.660337e-01 0.000000e+00 0.000000e+00
1
Step 174000
Ar 9.607981e-01 0.000000e+00 0.000000e+00
1
Step 175000
Ar 9.791914e-01 0.000000e+00 0.000000e+00
1
Step 176000
Ar 9.402370e-01 0.000000e+00 0.000000e+00
1
Step 177000
Ar 9.778938e-01 0.000000e+00 0.000000e+00
1
Step 178000
Ar 9.789745e-01 0.000000e+00 0.000000e+00
1
Step 179000
Ar 1.134866e+00 0.000000e+00 0.000000e+00
1
Step 180000
Ar 1.078099e+00 0.000000e+00 0.000000e+00
1
Step 181000
Ar 1.152051e+00 0.000000e+00 0.000000e+00
1
Step 182000
Ar 1.114456e+00 0.000000e+00 0.000000e+00
1
Step 183000
Ar 1.064309e+00 0.000000e+00 0.000000e+00
1
Step 184000
Ar 1.059550e+00 0.000000e+00 0.000000e+00
1
Step 185000
Ar 1.056516e+00 0.000000e+00 0.000000e+00
1
Step 186000
Ar 1.060593e+00 0.000000e+00 0.000000e+00
1
Step 187000
Ar 1.057125e+00 0.000000e+00 0.000000e+00
1
Step 188000
Ar 1.097732e+00 0.000000e+00 0.000000e+00
1
Step 189000
Ar 1.146995e+00 0.000000e+00 0.000000e+00
1
Step 190000
Ar 1.196939e+00 0.000000e+00 0.000000e+00
1
Step 191000
Ar 1.182237e+00 0.000000e+00 0.000000e+00
1
Step 192000
Ar 1.201800e+00 0.000000e+00 0.000000e+00
1
Step 193000
Ar 1.226335e+00 0.000000e+00 0.000000e+00
1
Step 194000
Ar 1.220428e+00 0.000000e+00 0.000000e+00
1
Step 195000
Ar 1.208642e+00 0.000000e+00 0.000000e+00
1
Step 196000
Ar 1.253610e+00 0.000000e+00 0.000000e+00
1
Step 197000
Ar 1.254505e+00 0.000000e+00 0.000000e+00
1
Step 198000
Ar 1.258700e+00 0.000000e+00 0.000000e+00
1
Step 199000
Ar 1.275477e+00 0.000000e+00 0.000000e+00
1
Step 200000
Ar 1.257938e+00 0.000000e+00 0.000000e+00
1
Step 201000
Ar 1.251693e+00 0.000000e+00 0.000000e+00
1
Step 202000
Ar 1.253277e+00 0.000000e+00 0.000000e+00
1
Step 203000
Ar 1.255826e+00 0.000000e+00 0.000000e+00
1
Step 204000
Ar 9.488248e-01 0.000000e+00 0.000000e+00
1
Step 205000
Ar 9.466963e-01 0.000000e+00 0.000000e+00
1
Step 206000
Ar 9.402950e-01 0.000000e+00 0.000000e+00
1
Step 207000
Ar 6.760058e-01 0.000000e+00 0.000000e+00
1
Step 208000
Ar 9.065468e-01 0.000000e+00 0.000000e+00
1
Step 209000
Ar 8.620073e-01 0.000000e+00 0.000000e+00
1
Step 210000
Ar 8.545703e-01 0.000000e+00 0.000000e+00
1
Step 211000
Ar 7.785691e-01 0.000000e+00 0.000000e+00
1
Step 212000
Ar 7.670127e-01 0.000000e+00 0.000000e+00
1
Step 213000
Ar 6.250574e-01 0.000000e+00 0.000000e+00
1
Step 214000
Ar 7.491802e-01 0.000000e+00 0.000000e+00
1
Step 215000
Ar 8.395351e-01 0.000000e+00 0.000000e+00
1
Step 216000
Ar 8.316187e-01 0.000000e+00 0.000000e+00
1
Step 217000
Ar 6.872747e-01 0.000000e+00 0.000000e+00
1
Step 218000
Ar 8.072692e-01 0.000000e+00 0.000000e+00
1
Step 219000
Ar 7.746597e-01 0.000000e+00 0.000000e+00
1
Step 220000
Ar 8.029753e-01 0.000000e+00 0.000000e+00
1
Step 221000
Ar 8.467478e-01 0.000000e+00 0.000000e+00
1
Step 222000
Ar 8.262701e-01 0.000000e+00 0.000000e+00
1
Step 223000
Ar 7.945984e-01 0.000000e+00 0.000000e+00
1
Step 224000
Ar 8.302777e-01 0.000000e+00 0.000000e+00
1
Step 225000
Ar 8.115572e-01 0.000000e+00 0.000000e+00
1
Step 226000
Ar 7.599495e-01 0.000000e+00 0.000000e+00
1
Step 227000
Ar 8.014901e-01 0.000000e+00 0.000000e+00
1
Step 228000
Ar 8.319366e-01 0.000000e+00 0.000000e+00
1
Step 229000
Ar 7.558005e-01 0.000000e+00 0.000000e+00
1
Step 230000
Ar 8.388779e-01 0.000000e+00 0.000000e+00
1
Step 231000
Ar 8.466121e-01 0.000000e+00 0.000000e+00
1
Step 232000
Ar 8.496275e-01 0.000000e+00 0.000000e+00
1
Step 233000
Ar 8.508086e-01 0.000000e+00 0.000000e+00
1
Step 234000
Ar 8.995403e-01 0.000000e+00 0.000000e+00
1
Step 235000
Ar 8.921750e-01 0.000000e+00 0.000000e+00
1
Step 236000
Ar 9.118253e-01 0.000000e+00 0.000000e+00
1
Step 237000
Ar 9.450067e-01 0.000000e+00 0.000000e+00
1
Step 238000
Ar 1.410412e+00 0.000000e+00 0.000000e+00
1
Step 239000
Ar 1.326396e+00 0.000000e+00 0.000000e+00
1
Step 240000
Ar 1.306901e+00 0.000000e+00 0.000000e+00
1
Step 241000
Ar 1.323785e+00 0.000000e+00 0.000000e+00
1
Step 242000
Ar 1.333226e+00 0.000000e+00 0.000000e+00
1
Step 243000
Ar 1.306956e+00 0.000000e+00 0.000000e+00
1
Step 244000
Ar 1.310354e+00 0.000000e+00 0.000000e+00
1
Step 245000
Ar 1.318743e+00 0.000000e+00 0.000000e+00
1
Step 246000
Ar 1.307732e+00 0.000000e+00 0.000000e+00
1
Step 247000
Ar 1.319200e+00 0.000000e+00 0.000000e+00
1
Step 248000
Ar 1.353167e+00 0.000000e+00 0.000000e+00
1
Step 249000
Ar 1.372610e+00 0.000000e+00 0.000000e+00
1
Step 250000
Ar 1.380246e+00 0.000000e+00 0.000000e+00
1
Step 251000
Ar 1.424380e+00 0.000000e+00 0.000000e+00
1
Step 252000
Ar 1.386602e+00 0.000000e+00 0.000000e+00
1
Step 253000
Ar 1.384845e+00 0.000000e+00 0.000000e+00
1
Step 254000
Ar 1.403989e+00 0.000000e+00 0.000000e+00
1
Step 255000
Ar 1.382347e+00 0.000000e+00 0.000000e+00
1
Step 256000
Ar 1.402354e+00 0.000000e+00 0.000000e+00
1
Step 257000
Ar 1.385840e+00 0.000000e+00 0.000000e+00
1
Step 258000
Ar 1.399670e+00 0.000000e+00 0.000000e+00
1
Step 259000
Ar 1.381469e+00 0.000000e+00 0.000000e+00
1
Step 260000
Ar 1.382534e+00 0.000000e+00 0.000000e+00
1
Step 261000
Ar 1.368514e+00 0.000000e+00 0.000000e+00
1
Step 262000
Ar 1.407413e+00 0.000000e+00 0.000000e+00
1
Step 263000
Ar 1.377052e+00 0.000000e+00 0.000000e+00
1
Step 264000
Ar 1.388093e+00 0.000000e+00 0.000000e+00
1
Step 265000
Ar 1.421751e+00 0.000000e+00 0.000000e+00
1
Step 266000
Ar 1.416816e+00 0.000000e+00 0.000000e+00
1
Step 267000
Ar 1.282705e+00 0.000000e+00 0.000000e+00
1
Step 268000
Ar 1.279435e+00 0.000000e+00 0.000000e+00
1
Step 269000
Ar 1.278475e+00 0.000000e+00 0.000000e+00
1
Step 270000
Ar 1.278502e+00 0.000000e+00 0.000000e+00
1
Step 271000
Ar 1.278083e+00 0.000000e+00 0.000000e+00
1
Step 272000
Ar 1.277087e+00 0.000000e+00 0.000000e+00
1
Step 273000
Ar 1.282284e+00 0.000000e+00 0.000000e+00
1
Step 274000
Ar 1.275059e+00 0.000000e+00 0.000000e+00
1
Step 275000
Ar 1.311410e+00 0.000000e+00 0.000000e+00
1
Step 276000
Ar 1.305838e+00 0.000000e+00 0.000000e+00
1
Step 277000
Ar 1.029969e+00 0.000000e+00 0.000000e+00
1
Step 278000
Ar 1.032300e+00 0.000000e+00 0.000000e+00
1
Step 279000
Ar 1.031307e+00 0.000000e+00 0.000000e+00
1
Step 280000
Ar 1.113673e+00 0.000000e+00 0.000000e+00
1
Step 281000
Ar 1.123728e+00 0.000000e+00 0.000000e+00
1
Step 282000
Ar 1.120952e+00 0.000000e+00 0.000000e+00
1
Step 283000
Ar 1.080569e+00 0.000000e+00 0.000000e+00
1
Step 284000
Ar 1.122659e+00 0.000000e+00 0.000000e+00
1
Step 285000
Ar 1.122099e+00 0.000000e+00 0.000000e+00
1
Step 286000
Ar 1.228174e+00 0.000000e+00 0.000000e+00
1
Step 287000
Ar 1.227629e+00 0.000000e+00 0.000000e+00
1
Step 288000
Ar 1.227795e+00 0.000000e+00 0.000000e+00
1
Step 289000
Ar 1.225758e+00 0.000000e+00 0.000000e+00
1
Step 290000
Ar 1.229699e+00 0.000000e+00 0.000000e+00
1
Step 291000
Ar 1.226216e+00 0.000000e+00 0.000000e+00
1
Step 292000
Ar 1.021616e+00 0.000000e+00 0.000000e+00
1
Step 293000
Ar 7.020817e-01 0.000000e+00 0.000000e+00
1
Step 294000
Ar 6.660851e-01 0.000000e+00 0.000000e+00
1
Step 295000
Ar 3.542332e-01 0.000000e+00 0.000000e+00
1
Step 296000
Ar 4.191296e-01 0.000000e+00 0.000000e+00
1
Step 297000
Ar 7.981545e-01 0.000000e+00 0.000000e+00
1
Step 298000
Ar 8.100896e-01 0.000000e+00 0.000000e+00
1
Step 299000
Ar 7.615409e-01 0.000000e+00 0.000000e+00
1
Step 300000
Ar 9.142501e-01 0.000000e+00 0.000000e+00
1
Step 301000
Ar 9.839176e-01 0.000000e+00 0.000000e+00
1
Step 302000
Ar 9.794140e-01 0.000000e+00 0.000000e+00
1
Step 303000
Ar 9.823334e-01 0.000000e+00 0.000000e+00
1
Step 304000
Ar 9.809271e-01 0.000000e+00 0.000000e+00
1
Step 305000
Ar 9.783965e-01 0.000000e+00 0.000000e+00
1
Step 306000
Ar 9.835413e-01 0.000000e+00 0.000000e+00
1
Step 307000
Ar 9.790208e-01 0.000000e+00 0.000000e+00
1
Step 308000
Ar 9.836483e-01 0.000000e+00 0.000000e+00
1
Step 309000
Ar 9.806097e-01 0.000000e+00 0.000000e+00
1
Step 310000
Ar 9.790621e-01 0.000000e+00 0.000000e+00
1
Step 311000
Ar 9.790642e-01 0.000000e+00 0.000000e+00
1
Step 312000
Ar 9.788349e-01 0.000000e+00 0.000000e+00
1
Step 313000
Ar 7.876824e-01 0.000000e+00 0.000000e+00
1
Step 314000
Ar 7.483299e-01 0.000000e+00 0.000000e+00
1
Step 315000
Ar 8.095227e-01 0.000000e+00 0.000000e+00
1
Step 316000
Ar 7.488559e-01 0.000000e+00 0.000000e+00
1
Step 317000
Ar 7.773597e-01 0.000000e+00 0.000000e+00
1
Step 318000
Ar 8.115712e-01 0.000000e+00 0.000000e+00
1
Step 319000
Ar 7.852831e-01 0.000000e+00 0.000000e+00
1
Step 320000
Ar 7.598277e-01 0.000000e+00 0.000000e+00
1
Step 321000
Ar 8.149643e-01 0.000000e+00 0.000000e+00
1
Step 322000
Ar 7.906208e-01 0.000000e+00 0.000000e+00
1
Step 323000
Ar 8.127872e-01 0.000000e+00 0.000000e+00
1
Step 324000
Ar 7.918445e-01 0.000000e+00 0.000000e+00
1
Step 325000
Ar 7.836608e-01 0.000000e+00 0.000000e+00
1
Step 326000
Ar 7.880428e-01 0.000000e+00 0.000000e+00
1
Step 327000
Ar 7.853195e-01 0.000000e+00 0.000000e+00
1
Step 328000
Ar 7.599473e-01 0.000000e+00 0.000000e+00
1
Step 329000
Ar 7.689314e-01 0.000000e+00 0.000000e+00
1
Step 330000
Ar 7.534944e-01 0.000000e+00 0.000000e+00
1
Step 331000
Ar 7.488407e-01 0.000000e+00 0.000000e+00
1
Step 332000
Ar 7.669408e-01 0.000000e+00 0.000000e+00
1
Step 333000
Ar 7.535432e-01 0.000000e+00 0.000000e+00
1
Step 334000
Ar 7.593784e-01 0.000000e+00 0.000000e+00
1
Step 335000
Ar 7.635561e-01 0.000000e+00 0.000000e+00
1
Step 336000
Ar 6.707827e-01 0.000000e+00 0.000000e+00
1
Step 337000
Ar 6.518638e-01 0.000000e+00 0.000000e+00
1
Step 338000
Ar 5.819494e-01 0.000000e+00 0.000000e+00
1
Step 339000
Ar 6.108783e-01 0.000000e+00 0.000000e+00
1
Step 340000
Ar 6.432881e-01 0.000000e+00 0.000000e+00
1
Step 341000
Ar 6.861469e-01 0.000000e+00 0.000000e+00
1
Step 342000
Ar 6.741379e-01 0.000000e+00 0.000000e+00
1
Step 343000
Ar 6.738454e-01 0.000000e+00 0.000000e+00
1
Step 344000
Ar 6.856424e-01 0.000000e+00 0.000000e+00
1
Step 345000
Ar 6.760275e-01 0.000000e+00 0.000000e+00
1
Step 346000
Ar 6.669341e-01 0.000000e+00 0.000000e+00
1
Step 347000
Ar 7.862943e-01 0.000000e+00 0.000000e+00
1
Step 348000
Ar 7.477079e-01 0.000000e+00 0.000000e+00
1
Step 349000
Ar 7.371423e-01 0.000000e+00 0.000000e+00
1
Step 350000
Ar 7.342866e-01 0.000000e+00 0.000000e+00
1
Step 351000
Ar 9.574556e-01 0.000000e+00 0.000000e+00
1
Step 352000
Ar 6.285110e-01 0.000000e+00 0.000000e+00
1
Step 353000
Ar 6.231741e-01 0.000000e+00 0.000000e+00
1
Step 354000
Ar 6.316879e-01 0.000000e+00 0.000000e+00
1
Step 355000
Ar 6.249550e-01 0.000000e+00 0.000000e+00
1
Step 356000
Ar 6.286903e-01 0.000000e+00 0.000000e+00
1
Step 357000
Ar 6.348862e-01 0.000000e+00 0.000000e+00
1
Step 358000
Ar 6.238054e-01 0.000000e+00 0.000000e+00
1
Step 359000
Ar 8.820254e-01 0.000000e+00 0.000000e+00
1
Step 360000
Ar 7.214082e-01 0.000000e+00 0.000000e+00
1
Step 361000
Ar 6.433528e-01 0.000000e+00 0.000000e+00
1
Step 362000
Ar 6.413008e-01 0.000000e+00 0.000000e+00
1
Step 363000
Ar 6.384881e-01 0.000000e+00 0.000000e+00
1
Step 364000
Ar 6.397956e-01 0.000000e+00 0.000000e+00
1
Step 365000
Ar 6.400806e-01 0.000000e+00 0.000000e+00
1
Step 366000
Ar 6.379886e-01 0.000000e+00 0.000000e+00
1
Step 367000
Ar 6.389274e-01 0.000000e+00 0.000000e+00
1
Step 368000
Ar 6.364834e-01 0.000000e+00 0.000000e+00
1
Step 369000
Ar 6.459643e-01 0.000000e+00 0.000000e+00
1
Step 370000
Ar 6.396902e-01 0.000000e+00 0.000000e+00
1
Step 371000
Ar 6.438312e-01 0.000000e+00 0.000000e+00
1
Step 372000
Ar 6.423804e-01 0.000000e+00 0.000000e+00
1
Step 373000
Ar 6.400009e-01 0.000000e+00 0.000000e+00
1
Step 374000
Ar 6.434867e-01 0.000000e+00 0.000000e+00
1
Step 375000
Ar 6.406459e-01 0.000000e+00 0.000000e+00
1
Step 376000
Ar 6.459690e-01 0.000000e+00 0.000000e+00
1
Step 377000
Ar 9.029707e-01 0.000000e+00 0.000000e+00
1
Step 378000
Ar -1.066988e+00 0.000000e+00 0.000000e+00
1
Step 379000
Ar -1.129246e+00 0.000000e+00 0.000000e+00
1
Step 380000
Ar -8.748732e-01 0.000000e+00 0.000000e+00
1
Step 381000
Ar -1.023752e+00 0.000000e+00 0.000000e+00
1
Step 382000
Ar -9.596225e-01 0.000000e+00 0.000000e+00
1
Step 383000
Ar -1.131589e+00 0.000000e+00 0.000000e+00
1
Step 384000
Ar -1.157463e+00 0.000000e+00 0.000000e+00
1
Step 385000
Ar -1.023195e+00 0.000000e+00 0.000000e+00
1
Step 386000
Ar -9.105067e-01 0.000000e+00 0.000000e+00
1
Step 387000
Ar -9.149972e-01 0.000000e+00 0.000000e+00
1
Step 388000
Ar -8.860678e-01 0.000000e+00 0.000000e+00
1
Step 389000
Ar -9.090126e-01 0.000000e+00 0.000000e+00
1
Step 390000
Ar -8.734961e-01 0.000000e+00 0.000000e+00
1
Step 391000
Ar -9.296520e-01 0.000000e+00 0.000000e+00
1
Step 392000
Ar -9.267876e-01 0.000000e+00 0.000000e+00
1
Step 393000
Ar -9.069508e-01 0.000000e+00 0.000000e+00
1
Step 394000
Ar -9.160347e-01 0.000000e+00 0.000000e+00
1
Step 395000
Ar -9.087177e-01 0.000000e+00 0.000000e+00
1
Step 396000
Ar -9.186445e-01 0.000000e+00 0.000000e+00
1
Step 397000
Ar -9.036752e-01 0.000000e+00 0.000000e+00
1
Step 398000
Ar -9.150900e-01 0.000000e+00 0.000000e+00
1
Step 399000
Ar -9.142989e-01 0.000000e+00 0.000000e+00
1
Step 400000
Ar -9.143841e-01 0.000000e+00 0.000000e+00
1
Step 401000
Ar -9.240337e-01 0.000000e+00 0.000000e+00
1
Step 402000
Ar -9.249049e-01 0.000000e+00 0.000000e+00
1
Step 403000
Ar -9.151927e-01 0.000000e+00 0.000000e+00
1
Step 404000
Ar -9.130099e-01 0.000000e+00 0.000000e+00
1
Step 405000
Ar -1.111395e+00 0.000000e+00 0.000000e+00
1
Step 406000
Ar -1.155564e+00 0.000000e+00 0.000000e+00
1
Step 407000
Ar -1.128986e+00 0.000000e+00 0.000000e+00
1
Step 408000
Ar -1.232758e+00 0.000000e+00 0.000000e+00
1
Step 409000
Ar -1.277994e+00 0.000000e+00 0.000000e+00
1
Step 410000
Ar -1.211807e+00 0.000000e+00 0.000000e+00
1
Step 411000
Ar -1.264298e+00 0.000000e+00 0.000000e+00
1
Step 412000
Ar -1.220815e+00 0.000000e+00 0.000000e+00
1
Step 413000
Ar -1.222669e+00 0.000000e+00 0.000000e+00
1
Step 414000
Ar -1.217099e+00 0.000000e+00 0.000000e+00
1
Step 415000
Ar -1.219667e+00 0.000000e+00 0.000000e+00
1
Step 416000
Ar -1.210917e+00 0.000000e+00 0.000000e+00
1
Step 417000
Ar -1.217469e+00 0.000000e+00 0.000000e+00
1
Step 418000
Ar -1.211750e+00 0.000000e+00 0.000000e+00
1
Step 419000
Ar -1.227520e+00 0.000000e+00 0.000000e+00
1
Step 420000
Ar -1.227573e+00 0.000000e+00 0.000000e+00
1
Step 421000
Ar -1.230331e+00 0.000000e+00 0.000000e+00
1
Step 422000
Ar -1.234297e+00 0.000000e+00 0.000000e+00
1
Step 423000
Ar -1.231064e+00 0.000000e+00 0.000000e+00
1
Step 424000
Ar -1.226190e+00 0.000000e+00 0.000000e+00
1
Step 425000
Ar -1.231000e+00 0.000000e+00 0.000000e+00
1
Step 426000
Ar -1.230492e+00 0.000000e+00 0.000000e+00
1
Step 427000
Ar -1.231344e+00 0.000000e+00 0.000000e+00
1
Step 428000
Ar -1.232071e+00 0.000000e+00 0.000000e+00
1
Step 429000
Ar -1.231701e+00 0.000000e+00 0.000000e+00
1
Step 430000
Ar -1.228225e+00 0.000000e+00 0.000000e+00
1
Step 431000
Ar -1.375135e+00 0.000000e+00 0.000000e+00
1
Step 432000
Ar -1.363460e+00 0.000000e+00 0.000000e+00
1
Step 433000
Ar -1.293605e+00 0.000000e+00 0.000000e+00
1
Step 434000
Ar -1.291677e+00 0.000000e+00 0.000000e+00
1
Step 435000
Ar -1.293642e+00 0.000000e+00 0.000000e+00
1
Step 436000
Ar -1.295579e+00 0.000000e+00 0.000000e+00
1
Step 437000
Ar -1.282418e+00 0.000000e+00 0.000000e+00
1
Step 438000
Ar -1.283468e+00 0.000000e+00 0.000000e+00
1
Step 439000
Ar -1.286764e+00 0.000000e+00 0.000000e+00
1
Step 440000
Ar -1.284998e+00 0.000000e+00 0.000000e+00
1
Step 441000
Ar -1.279116e+00 0.000000e+00 0.000000e+00
1
Step 442000
Ar -1.288242e+00 0.000000e+00 0.000000e+00
1
Step 443000
Ar -1.287706e+00 0.000000e+00 0.000000e+00
1
Step 444000
Ar -1.281996e+00 0.000000e+00 0.000000e+00
1
Step 445000
Ar -1.286380e+00 0.000000e+00 0.000000e+00
1
Step 446000
Ar -1.252534e+00 0.000000e+00 0.000000e+00
1
Step 447000
Ar -1.260270e+00 0.000000e+00 0.000000e+00
1
Step 448000
Ar -1.254632e+00 0.000000e+00 0.000000e+00
1
Step 449000
Ar -1.257527e+00 0.000000e+00 0.000000e+00
1
Step 450000
Ar -5.421535e-01 0.000000e+00 0.000000e+00
1
Step 451000
Ar -8.713845e-01 0.000000e+00 0.000000e+00
1
Step 452000
Ar -6.801444e-01 0.000000e+00 0.000000e+00
1
Step 453000
Ar -6.610701e-01 0.000000e+00 0.000000e+00
1
Step 454000
Ar -8.792022e-01 0.000000e+00 0.000000e+00
1
Step 455000
Ar -7.308099e-01 0.000000e+00 0.000000e+00
1
Step 456000
Ar -5.936161e-01 0.000000e+00 0.000000e+00
1
Step 457000
Ar -1.370776e-01 0.000000e+00 0.000000e+00
1
Step 458000
Ar -6.321412e-01 0.000000e+00 0.000000e+00
1
Step 459000
Ar -5.587470e-01 0.000000e+00 0.000000e+00
1
Step 460000
Ar -7.649655e-01 0.000000e+00 0.000000e+00
1
Step 461000
Ar -7.679699e-01 0.000000e+00 0.000000e+00
1
Step 462000
Ar -7.598149e-01 0.000000e+00 0.000000e+00
1
Step 463000
Ar -7.605009e-01 0.000000e+00 0.000000e+00
1
Step 464000
Ar -7.668403e-01 0.000000e+00 0.000000e+00
1
Step 465000
Ar -7.226702e-01 0.000000e+00 0.000000e+00
1
Step 466000
Ar -7.320235e-01 0.000000e+00 0.000000e+00
1
Step 467000
Ar -6.238906e-01 0.000000e+00 0.000000e+00
1
Step 468000
Ar -5.939779e-01 0.000000e+00 0.000000e+00
1
Step 469000
Ar -6.083325e-01 0.000000e+00 0.000000e+00
1
Step 470000
Ar -5.983499e-01 0.000000e+00 0.000000e+00
1
Step 471000
Ar -1.015270e+00 0.000000e+00 0.000000e+00
1
Step 472000
Ar -9.965802e-01 0.000000e+00 0.000000e+00
1
Step 473000
Ar -9.958569e-01 0.000000e+00 0.000000e+00
1
Step 474000
Ar -9.762661e-01 0.000000e+00 0.000000e+00
1
Step 475000
Ar -1.065442e+00 0.000000e+00 0.000000e+00
1
Step 476000
Ar -1.109557e+00 0.000000e+00 0.000000e+00
1
Step 477000
Ar -1.113083e+00 0.000000e+00 0.000000e+00
1
Step 478000
Ar -1.131020e+00 0.000000e+00 0.000000e+00
1
Step 479000
Ar -1.110335e+00 0.000000e+00 0.000000e+00
1
Step 480000
Ar -1.123961e+00 0.000000e+00 0.000000e+00
1
Step 481000
Ar -1.131808e+00 0.000000e+00 0.000000e+00
1
Step 482000
Ar -1.131233e+00 0.000000e+00 0.000000e+00
1
Step 483000
Ar -1.139480e+00 0.000000e+00 0.000000e+00
1
Step 484000
Ar -1.132773e+00 0.000000e+00 0.000000e+00
1
Step 485000
Ar -1.130364e+00 0.000000e+00 0.000000e+00
1
Step 486000
Ar -1.130288e+00 0.000000e+00 0.000000e+00
1
Step 487000
Ar -1.140957e+00 0.000000e+00 0.000000e+00
1
Step 488000
Ar -1.132558e+00 0.000000e+00 0.000000e+00
1
Step 489000
Ar -1.112777e+00 0.000000e+00 0.000000e+00
1
Step 490000
Ar -1.109790e+00 0.000000e+00 0.000000e+00
1
Step 491000
Ar -1.117166e+00 0.000000e+00 0.000000e+00
1
Step 492000
Ar -1.113218e+00 0.000000e+00 0.000000e+00
1
Step 493000
Ar -1.105706e+00 0.000000e+00 0.000000e+00
1
Step 494000
Ar -1.128568e+00 0.000000e+00 0.000000e+00
1
Step 495000
Ar -1.112620e+00 0.000000e+00 0.000000e+00
1
Step 496000
Ar -1.115861e+00 0.000000e+00 0.000000e+00
1
Step 497000
Ar -1.111893e+00 0.000000e+00 0.000000e+00
1
Step 498000
Ar -1.111009e+00 0.000000e+00 0.000000e+00
1
Step 499000
Ar -1.113336e+00 0.000000e+00 0.000000e+00
1
Step 500000
Ar -1.117169e+00 0.000000e+00 0.000000e+00
1
Step 501000
Ar -1.117815e+00 0.000000e+00 0.000000e+00
1
Step 502000
Ar -1.120973e+00 0.000000e+00 0.000000e+00
1
Step 503000
Ar -1.117423e+00 0.000000e+00 0.000000e+00
1
Step 504000
Ar -1.113033e+00 0.000000e+00 0.000000e+00
1
Step 505000
Ar -1.119389e+00 0.000000e+00 0.000000e+00
1
Step 506000
Ar -1.120175e+00 0.000000e+00 0.000000e+00
1
Step 507000
Ar -1.120840e+00 0.000000e+00 0.000000e+00
1
Step 508000
Ar -1.118477e+00 0.000000e+00 0.000000e+00
1
Step 509000
Ar -9.659487e-01 0.000000e+00 0.000000e+00
1
Step 510000
Ar -9.660452e-01 0.000000e+00 0.000000e+00
1
Step 511000
Ar -9.911251e-01 0.000000e+00 0.000000e+00
1
Step 512000
Ar -9.738613e-01 0.000000e+00 0.000000e+00
1
Step 513000
Ar -9.811627e-01 0.000000e+00 0.000000e+00
1
Step 514000
Ar -9.698545e-01 0.000000e+00 0.000000e+00
1
Step 515000
Ar -9.809820e-01 0.000000e+00 0.000000e+00
1
Step 516000
Ar -1.015826e+00 0.000000e+00 0.000000e+00
1
Step 517000
Ar -1.017061e+00 0.000000e+00 0.000000e+00
1
Step 518000
Ar -8.803492e-01 0.000000e+00 0.000000e+00
1
Step 519000
Ar -8.501755e-01 0.000000e+00 0.000000e+00
1
Step 520000
Ar -8.542488e-01 0.000000e+00 0.000000e+00
1
Step 521000
Ar -8.729032e-01 0.000000e+00 0.000000e+00
1
Step 522000
Ar -8.559696e-01 0.000000e+00 0.000000e+00
1
Step 523000
Ar -8.553538e-01 0.000000e+00 0.000000e+00
1
Step 524000
Ar -8.675358e-01 0.000000e+00 0.000000e+00
1
Step 525000
Ar -8.557206e-01 0.000000e+00 0.000000e+00
1
Step 526000
Ar -8.755699e-01 0.000000e+00 0.000000e+00
1
Step 527000
Ar -8.751122e-01 0.000000e+00 0.000000e+00
1
Step 528000
Ar -8.804999e-01 0.000000e+00 0.000000e+00
1
Step 529000
Ar -8.499379e-01 0.000000e+00 0.000000e+00
1
Step 530000
Ar -8.452660e-01 0.000000e+00 0.000000e+00
1
Step 531000
Ar -8.463748e-01 0.000000e+00 0.000000e+00
1
Step 532000
Ar -8.739224e-01 0.000000e+00 0.000000e+00
1
Step 533000
Ar -8.471234e-01 0.000000e+00 0.000000e+00
1
Step 534000
Ar -8.707433e-01 0.000000e+00 0.000000e+00
1
Step 535000
Ar -8.718902e-01 0.000000e+00 0.000000e+00
1
Step 536000
Ar -8.745088e-01 0.000000e+00 0.000000e+00
1
Step 537000
Ar -8.587161e-01 0.000000e+00 0.000000e+00
1
Step 538000
Ar -8.431665e-01 0.000000e+00 0.000000e+00
1
Step 539000
Ar -8.571568e-01 0.000000e+00 0.000000e+00
1
Step 540000
Ar -8.660663e-01 0.000000e+00 0.000000e+00
1
Step 541000
Ar -8.488296e-01 0.000000e+00 0.000000e+00
1
Step 542000
Ar -8.459497e-01 0.000000e+00 0.000000e+00
1
Step 543000
Ar -8.603535e-01 0.000000e+00 0.000000e+00
1
Step 544000
Ar -8.405747e-01 0.000000e+00 0.000000e+00
1
Step 545000
Ar -8.604496e-01 0.000000e+00 0.000000e+00
1
Step 546000
Ar -8.705402e-01 0.000000e+00 0.000000e+00
1
Step 547000
Ar -8.427187e-01 0.000000e+00 0.000000e+00
1
Step 548000
Ar -8.616277e-01 0.000000e+00 0.000000e+00
1
Step 549000
Ar -8.791227e-01 0.000000e+00 0.000000e+00
1
Step 550000
Ar -8.745435e-01 0.000000e+00 0.000000e+00
1
Step 551000
Ar -8.566971e-01 0.000000e+00 0.000000e+00
1
Step 552000
Ar -8.758691e-01 0.000000e+00 0.000000e+00
1
Step 553000
Ar -8.600617e-01 0.000000e+00 0.000000e+00
1
Step 554000
Ar -8.471951e-01 0.000000e+00 0.000000e+00
1
Step 555000
Ar -8.635416e-01 0.000000e+00 0.000000e+00
1
Step 556000
Ar -8.833277e-01 0.000000e+00 0.000000e+00
1
Step 557000
Ar -7.943969e-01 0.000000e+00 0.000000e+00
1
Step 558000
Ar -7.960764e-01 0.000000e+00 0.000000e+00
1
Step 559000
Ar -7.985962e-01 0.000000e+00 0.000000e+00
1
Step 560000
Ar -8.007805e-01 0.000000e+00 0.000000e+00
1
Step 561000
Ar -8.001373e-01 0.000000e+00 0.000000e+00
1
Step 562000
Ar -7.677919e-01 0.000000e+00 0.000000e+00
1
Step 563000
Ar -7.664809e-01 0.000000e+00 0.000000e+00
1
Step 564000
Ar -7.695434e-01 0.000000e+00 0.000000e+00
1
Step 565000
Ar -7.724061e-01 0.000000e+00 0.000000e+00
1
Step 566000
Ar -1.326667e+00 0.000000e+00 0.000000e+00
1
Step 567000
Ar -1.357248e+00 0.000000e+00 0.000000e+00
1
Step 568000
Ar -1.439893e+00 0.000000e+00 0.000000e+00
1
Step 569000
Ar -1.480239e+00 0.000000e+00 0.000000e+00
1
Step 570000
Ar -1.479827e+00 0.000000e+00 0.000000e+00
1
Step 571000
Ar -1.476740e+00 0.000000e+00 0.000000e+00
1
Step 572000
Ar -1.502627e+00 0.000000e+00 0.000000e+00
1
Step 573000
Ar -1.478200e+00 0.000000e+00 0.000000e+00
1
Step 574000
Ar 5.693972e-01 0.000000e+00 0.000000e+00
1
Step 575000
Ar 5.773699e-01 0.000000e+00 0.000000e+00
1
Step 576000
Ar 5.458532e-01 0.000000e+00 0.000000e+00
1
Step 577000
Ar 6.845565e-01 0.000000e+00 0.000000e+00
1
Step 578000
Ar 6.769338e-01 0.000000e+00 0.000000e+00
1
Step 579000
Ar 5.572793e-01 0.000000e+00 0.000000e+00
1
Step 580000
Ar 5.668352e-01 0.000000e+00 0.000000e+00
1
Step 581000
Ar 5.598343e-01 0.000000e+00 0.000000e+00
1
Step 582000
Ar 5.583100e-01 0.000000e+00 0.000000e+00
1
Step 583000
Ar 5.578063e-01 0.000000e+00 0.000000e+00
1
Step 584000
Ar 5.619914e-01 0.000000e+00 0.000000e+00
1
Step 585000
Ar 5.704751e-01 0.000000e+00 0.000000e+00
1
Step 586000
Ar 5.666179e-01 0.000000e+00 0.000000e+00
1
Step 587000
Ar 5.601435e-01 0.000000e+00 0.000000e+00
1
Step 588000
Ar 5.569016e-01 0.000000e+00 0.000000e+00
1
Step 589000
Ar 5.622071e-01 0.000000e+00 0.000000e+00
1
Step 590000
Ar 5.592509e-01 0.000000e+00 0.000000e+00
1
Step 591000
Ar 5.678134e-01 0.000000e+00 0.000000e+00
1
Step 592000
Ar 5.644073e-01 0.000000e+00 0.000000e+00
1
Step 593000
Ar 2.040550e-01 0.000000e+00 0.000000e+00
1
Step 594000
Ar -5.276412e-01 0.000000e+00 0.000000e+00
1
Step 595000
Ar -5.125981e-01 0.000000e+00 0.000000e+00
1
Step 596000
Ar -3.605075e-01 0.000000e+00 0.000000e+00
1
Step 597000
Ar -4.543402e-01 0.000000e+00 0.000000e+00
1
Step 598000
Ar -4.593022e-01 0.000000e+00 0.000000e+00
1
Step 599000
Ar -4.179510e-01 0.000000e+00 0.000000e+00
1
Step 600000
Ar -4.854389e-01 0.000000e+00 0.000000e+00
1
Step 601000
Ar -4.293383e-01 0.000000e+00 0.000000e+00
1
Step 602000
Ar -2.304725e-01 0.000000e+00 0.000000e+00
1
Step 603000
Ar -2.522155e-01 0.000000e+00 0.000000e+00
1
Step 604000
Ar -4.054103e-01 0.000000e+00 0.000000e+00
1
Step 605000
Ar -4.325354e-01 0.000000e+00 0.000000e+00
1
Step 606000
Ar -2.817309e-01 0.000000e+00 0.000000e+00
1
Step 607000
Ar -3.461716e-01 0.000000e+00 0.000000e+00
1
Step 608000
Ar -2.735902e-01 0.000000e+00 0.000000e+00
1
Step 609000
Ar -4.443902e-01 0.000000e+00 0.000000e+00
1
Step 610000
Ar -3.822798e-01 0.000000e+00 0.000000e+00
1
Step 611000
Ar -4.003803e-01 0.000000e+00 0.000000e+00
1
Step 612000
Ar 4.325914e-01 0.000000e+00 0.000000e+00
1
Step 613000
Ar 4.697111e-01 0.000000e+00 0.000000e+00
1
Step 614000
Ar 4.363148e-01 0.000000e+00 0.000000e+00
1
Step 615000
Ar 2.876241e-01 0.000000e+00 0.000000e+00
1
Step 616000
Ar 4.520740e-01 0.000000e+00 0.000000e+00
1
Step 617000
Ar 3.869101e-01 0.000000e+00 0.000000e+00
1
Step 618000
Ar 3.771625e-01 0.000000e+00 0.000000e+00
1
Step 619000
Ar -2.426947e-01 0.000000e+00 0.000000e+00
1
Step 620000
Ar 3.625442e-01 0.000000e+00 0.000000e+00
1
Step 621000
Ar 4.688252e-01 0.000000e+00 0.000000e+00
1
Step 622000
Ar 4.259801e-01 0.000000e+00 0.000000e+00
1
Step 623000
Ar 4.229603e-01 0.000000e+00 0.000000e+00
1
Step 624000
Ar 4.268179e-01 0.000000e+00 0.000000e+00
1
Step 625000
Ar 4.537540e-01 0.000000e+00 0.000000e+00
1
Step 626000
Ar 4.578162e-01 0.000000e+00 0.000000e+00
1
Step 627000
Ar 4.661277e-01 0.000000e+00 0.000000e+00
1
Step 628000
Ar 4.658790e-01 0.000000e+00 0.000000e+00
1
Step 629000
Ar 4.609241e-01 0.000000e+00 0.000000e+00
1
Step 630000
Ar 4.644093e-01 0.000000e+00 0.000000e+00
1
Step 631000
Ar 3.003805e-01 0.000000e+00 0.000000e+00
1
Step 632000
Ar 3.321459e-01 0.000000e+00 0.000000e+00
1
Step 633000
Ar -1.044582e-01 0.000000e+00 0.000000e+00
1
Step 634000
Ar -2.726466e-01 0.000000e+00 0.000000e+00
1
Step 635000
Ar -5.251214e-01 0.000000e+00 0.000000e+00
1
Step 636000
Ar -5.525307e-01 0.000000e+00 0.000000e+00
1
Step 637000
Ar -4.923743e-01 0.000000e+00 0.000000e+00
1
Step 638000
Ar -4.870916e-01 0.000000e+00 0.000000e+00
1
Step 639000
Ar -4.881934e-01 0.000000e+00 0.000000e+00
1
Step 640000
Ar -4.930990e-01 0.000000e+00 0.000000e+00
1
Step 641000
Ar -4.833843e-01 0.000000e+00 0.000000e+00
1
Step 642000
Ar -4.840837e-01 0.000000e+00 0.000000e+00
1
Step 643000
Ar -5.004591e-01 0.000000e+00 0.000000e+00
1
Step 644000
Ar -6.655059e-01 0.000000e+00 0.000000e+00
1
Step 645000
Ar -6.613315e-01 0.000000e+00 0.000000e+00
1
Step 646000
Ar -7.072053e-01 0.000000e+00 0.000000e+00
1
Step 647000
Ar -7.101785e-01 0.000000e+00 0.000000e+00
1
Step 648000
Ar -7.016427e-01 0.000000e+00 0.000000e+00
1
Step 649000
Ar -7.015888e-01 0.000000e+00 0.000000e+00
1
Step 650000
Ar -6.546069e-01 0.000000e+00 0.000000e+00
1
Step 651000