1
Step 120000
Ar 1.127316e+00 0.000000e+00 0.000000e+00
1
Step 121000
Ar 8.689083e-01 0.000000e+00 0.000000e+00
1
Step 122000
Ar 1.127446e+00 0.000000e+00 0.000000e+00
1
Step 123000
Ar 1.184896e+00 0.000000e+00 0.000000e+00
1
Step 124000
Ar 9.628166e-01 0.000000e+00 0.000000e+00
1
Step 125000
Ar 8.969738e-01 0.000000e+00 0.000000e+00
1
Step 126000
Ar 9.432624e-01 0.000000e+00 0.000000e+00
1
Step 127000
Ar 8.780118e-01 0.000000e+00 0.000000e+00
1
Step 128000
Ar 7.365375e-01 0.000000e+00 0.000000e+00
1
Step 129000
Ar 6.926719e-01 0.000000e+00 0.000000e+00
1
Step 130000
Ar 5.847192e-01 0.000000e+00 0.000000e+00
1
Step 131000
Ar 5.448568e-01 0.000000e+00 0.000000e+00
1
Step 132000
Ar 5.112165e-01 0.000000e+00 0.000000e+00
1
Step 133000
Ar 4.585101e-01 0.000000e+00 0.000000e+00
1
Step 134000
Ar 8.067153e-01 0.000000e+00 0.000000e+00
1
Step 135000
Ar 8.191255e-01 0.000000e+00 0.000000e+00
1
Step 136000
Ar 7.738518e-01 0.000000e+00 0.000000e+00
1
Step 137000
Ar 5.631862e-01 0.000000e+00 0.000000e+00
1
Step 138000
Ar 7.952829e-01 0.000000e+00 0.000000e+00
1
Step 139000
Ar 7.509514e-01 0.000000e+00 0.000000e+00
1
Step 140000
Ar 7.615750e-01 0.000000e+00 0.000000e+00
1
Step 141000
Ar 8.494893e-01 0.000000e+00 0.000000e+00
1
Step 142000
Ar 9.901574e-01 0.000000e+00 0.000000e+00
1
Step 143000
Ar 1.056669e+00 0.000000e+00 0.000000e+00
1
Step 144000
Ar 9.288177e-01 0.000000e+00 0.000000e+00
1
Step 145000
Ar 1.024045e+00 0.000000e+00 0.000000e+00
1
Step 146000
Ar 1.099739e+00 0.000000e+00 0.000000e+00
1
Step 147000
Ar 1.117453e+00 0.000000e+00 0.000000e+00
1
Step 148000
Ar 1.049181e+00 0.000000e+00 0.000000e+00
1
Step 149000
Ar 1.013800e+00 0.000000e+00 0.000000e+00
1
Step 150000
Ar 8.562335e-01 0.000000e+00 0.000000e+00
1
Step 151000
Ar 9.852625e-01 0.000000e+00 0.000000e+00
1
Step 152000
Ar 9.144144e-01 0.000000e+00 0.000000e+00
1
Step 153000
Ar 9.498200e-01 0.000000e+00 0.000000e+00
1
Step 154000
Ar 9.746147e-01 0.000000e+00 0.000000e+00
1
Step 155000
Ar 8.953041e-01 0.000000e+00 0.000000e+00
1
Step 156000
Ar 7.455327e-01 0.000000e+00 0.000000e+00
1
Step 157000
Ar 6.417348e-01 0.000000e+00 0.000000e+00
1
Step 158000
Ar 6.005084e-01 0.000000e+00 0.000000e+00
1
Step 159000
Ar 6.265322e-01 0.000000e+00 0.000000e+00
1
Step 160000
Ar 6.753063e-01 0.000000e+00 0.000000e+00
1
Step 161000
Ar 6.638071e-01 0.000000e+00 0.000000e+00
1
Step 162000
Ar 6.208857e-01 0.000000e+00 0.000000e+00
1
Step 163000
Ar 5.741256e-01 0.000000e+00 0.000000e+00
1
Step 164000
Ar 4.159409e-01 0.000000e+00 0.000000e+00
1
Step 165000
Ar 2.559248e-01 0.000000e+00 0.000000e+00
1
Step 166000
Ar -3.514833e-01 0.000000e+00 0.000000e+00
1
Step 167000
Ar -7.832601e-01 0.000000e+00 0.000000e+00
1
Step 168000
Ar -7.551744e-01 0.000000e+00 0.000000e+00
1
Step 169000
Ar -9.650426e-01 0.000000e+00 0.000000e+00
1
Step 170000
Ar -1.030484e+00 0.000000e+00 0.000000e+00
1
Step 171000
Ar -8.378938e-01 0.000000e+00 0.000000e+00
1
Step 172000
Ar -9.325174e-01 0.000000e+00 0.000000e+00
1
Step 173000
Ar -9.170188e-01 0.000000e+00 0.000000e+00
1
Step 174000
Ar -7.431997e-01 0.000000e+00 0.000000e+00
1
Step 175000
Ar -7.082677e-01 0.000000e+00 0.000000e+00
1
Step 176000
Ar -1.011334e+00 0.000000e+00 0.000000e+00
1
Step 177000
Ar -9.767444e-01 0.000000e+00 0.000000e+00
1
Step 178000
Ar -9.498747e-01 0.000000e+00 0.000000e+00
1
Step 179000
Ar -8.450565e-01 0.000000e+00 0.000000e+00
1
Step 180000
Ar -1.057627e+00 0.000000e+00 0.000000e+00
1
Step 181000
Ar -1.084362e+00 0.000000e+00 0.000000e+00
1
Step 182000
Ar -1.136236e+00 0.000000e+00 0.000000e+00
1
Step 183000
Ar -1.106333e+00 0.000000e+00 0.000000e+00
1
Step 184000
Ar -1.169133e+00 0.000000e+00 0.000000e+00
1
Step 185000
Ar -1.222168e+00 0.000000e+00 0.000000e+00
1
Step 186000
Ar -1.046360e+00 0.000000e+00 0.000000e+00
1
Step 187000
Ar -1.332073e+00 0.000000e+00 0.000000e+00
1
Step 188000
Ar -1.354556e+00 0.000000e+00 0.000000e+00
1
Step 189000
Ar -1.147293e+00 0.000000e+00 0.000000e+00
1
Step 190000
Ar -1.210415e+00 0.000000e+00 0.000000e+00
1
Step 191000
Ar -1.196208e+00 0.000000e+00 0.000000e+00
1
Step 192000
Ar -1.117019e+00 0.000000e+00 0.000000e+00
1
Step 193000
Ar -9.971654e-01 0.000000e+00 0.000000e+00
1
Step 194000
Ar -1.002513e+00 0.000000e+00 0.000000e+00
1
Step 195000
Ar -1.191132e+00 0.000000e+00 0.000000e+00
1
Step 196000
Ar -8.830073e-01 0.000000e+00 0.000000e+00
1
Step 197000
Ar -9.469318e-01 0.000000e+00 0.000000e+00
1
Step 198000
Ar -9.051963e-01 0.000000e+00 0.000000e+00
1
Step 199000
Ar -8.573566e-01 0.000000e+00 0.000000e+00
1
Step 200000
Ar -8.921658e-01 0.000000e+00 0.000000e+00
1
Step 201000
Ar -6.909520e-01 0.000000e+00 0.000000e+00
1
Step 202000
Ar -9.074266e-01 0.000000e+00 0.000000e+00
1
Step 203000
Ar -9.213488e-01 0.000000e+00 0.000000e+00
1
Step 204000
Ar -9.875320e-01 0.000000e+00 0.000000e+00
1
Step 205000
Ar -1.067264e+00 0.000000e+00 0.000000e+00
1
Step 206000
Ar -1.074442e+00 0.000000e+00 0.000000e+00
1
Step 207000
Ar -1.238256e+00 0.000000e+00 0.000000e+00
1
Step 208000
Ar -1.292307e+00 0.000000e+00 0.000000e+00
1
Step 209000
Ar -1.267376e+00 0.000000e+00 0.000000e+00
1
Step 210000
Ar -1.284550e+00 0.000000e+00 0.000000e+00
1
Step 211000
Ar -1.093400e+00 0.000000e+00 0.000000e+00
1
Step 212000
Ar -1.041806e+00 0.000000e+00 0.000000e+00
1
Step 213000
Ar -1.023514e+00 0.000000e+00 0.000000e+00
1
Step 214000
Ar -1.153903e+00 0.000000e+00 0.000000e+00
1
Step 215000
Ar -1.183267e+00 0.000000e+00 0.000000e+00
1
Step 216000
Ar -1.125651e+00 0.000000e+00 0.000000e+00
1
Step 217000
Ar -1.112280e+00 0.000000e+00 0.000000e+00
1
Step 218000
Ar -1.164270e+00 0.000000e+00 0.000000e+00
1
Step 219000
Ar -1.147228e+00 0.000000e+00 0.000000e+00
1
Step 220000
Ar -8.215367e-01 0.000000e+00 0.000000e+00
1
Step 221000
Ar -8.040750e-01 0.000000e+00 0.000000e+00
1
Step 222000
Ar -6.574683e-01 0.000000e+00 0.000000e+00
1
Step 223000
Ar -6.442070e-01 0.000000e+00 0.000000e+00
1
Step 224000
Ar -5.730840e-01 0.000000e+00 0.000000e+00
1
Step 225000
Ar -6.735253e-01 0.000000e+00 0.000000e+00
1
Step 226000
Ar -7.922816e-01 0.000000e+00 0.000000e+00
1
Step 227000
Ar -8.163144e-01 0.000000e+00 0.000000e+00
1
Step 228000
Ar -7.652100e-01 0.000000e+00 0.000000e+00
1
Step 229000
Ar -7.712969e-01 0.000000e+00 0.000000e+00
1
Step 230000
Ar -7.208227e-01 0.000000e+00 0.000000e+00
1
Step 231000
Ar -7.264562e-01 0.000000e+00 0.000000e+00
1
Step 232000
Ar -6.650290e-01 0.000000e+00 0.000000e+00
1
Step 233000
Ar -4.498325e-01 0.000000e+00 0.000000e+00
1
Step 234000
Ar -4.337587e-01 0.000000e+00 0.000000e+00
1
Step 235000
Ar -6.000164e-01 0.000000e+00 0.000000e+00
1
Step 236000
Ar -5.155781e-01 0.000000e+00 0.000000e+00
1
Step 237000
Ar -5.888095e-01 0.000000e+00 0.000000e+00
1
Step 238000
Ar -5.546832e-01 0.000000e+00 0.000000e+00
1
Step 239000
Ar -4.794254e-01 0.000000e+00 0.000000e+00
1
Step 240000
Ar -2.032102e-01 0.000000e+00 0.000000e+00
1
Step 241000
Ar -3.264486e-01 0.000000e+00 0.000000e+00
1
Step 242000
Ar -3.887682e-01 0.000000e+00 0.000000e+00
1
Step 243000
Ar -4.246921e-01 0.000000e+00 0.000000e+00
1
Step 244000
Ar -6.277418e-01 0.000000e+00 0.000000e+00
1
Step 245000
Ar -6.095843e-01 0.000000e+00 0.000000e+00
1
Step 246000
Ar -6.143596e-01 0.000000e+00 0.000000e+00
1
Step 247000
Ar -6.497776e-01 0.000000e+00 0.000000e+00
1
Step 248000
Ar -6.931411e-01 0.000000e+00 0.000000e+00
1
Step 249000
Ar -8.058577e-01 0.000000e+00 0.000000e+00
1
Step 250000
Ar -8.724523e-01 0.000000e+00 0.000000e+00
1
Step 251000
Ar -8.660317e-01 0.000000e+00 0.000000e+00
1
Step 252000
Ar -9.347259e-01 0.000000e+00 0.000000e+00
1
Step 253000
Ar -8.952175e-01 0.000000e+00 0.000000e+00
1
Step 254000
Ar -1.099651e+00 0.000000e+00 0.000000e+00
1
Step 255000
Ar -1.059555e+00 0.000000e+00 0.000000e+00
1
Step 256000
Ar -9.590808e-01 0.000000e+00 0.000000e+00
1
Step 257000
Ar -9.752243e-01 0.000000e+00 0.000000e+00
1
Step 258000
Ar -1.017200e+00 0.000000e+00 0.000000e+00
1
Step 259000
Ar -9.975073e-01 0.000000e+00 0.000000e+00
1
Step 260000
Ar -1.080470e+00 0.000000e+00 0.000000e+00
1
Step 261000
Ar -1.038099e+00 0.000000e+00 0.000000e+00
1
Step 262000
Ar -1.125847e+00 0.000000e+00 0.000000e+00
1
Step 263000
Ar -1.216611e+00 0.000000e+00 0.000000e+00
1
Step 264000
Ar -1.316496e+00 0.000000e+00 0.000000e+00
1
Step 265000
Ar -1.175571e+00 0.000000e+00 0.000000e+00
1
Step 266000
Ar -1.202988e+00 0.000000e+00 0.000000e+00
1
Step 267000
Ar -1.157576e+00 0.000000e+00 0.000000e+00
1
Step 268000
Ar -1.248704e+00 0.000000e+00 0.000000e+00
1
Step 269000
Ar -1.254565e+00 0.000000e+00 0.000000e+00
1
Step 270000
Ar -1.308311e+00 0.000000e+00 0.000000e+00
1
Step 271000
Ar -1.223154e+00 0.000000e+00 0.000000e+00
1
Step 272000
Ar -1.294979e+00 0.000000e+00 0.000000e+00
1
Step 273000
Ar -1.386073e+00 0.000000e+00 0.000000e+00
1
Step 274000
Ar -1.324153e+00 0.000000e+00 0.000000e+00
1
Step 275000
Ar -1.297835e+00 0.000000e+00 0.000000e+00
1
Step 276000
Ar -1.367326e+00 0.000000e+00 0.000000e+00
1
Step 277000
Ar -1.393320e+00 0.000000e+00 0.000000e+00
1
Step 278000
Ar -1.403866e+00 0.000000e+00 0.000000e+00
1
Step 279000
Ar -1.431488e+00 0.000000e+00 0.000000e+00
1
Step 280000
Ar -1.413300e+00 0.000000e+00 0.000000e+00
1
Step 281000
Ar -1.423913e+00 0.000000e+00 0.000000e+00
1
Step 282000
Ar -1.347677e+00 0.000000e+00 0.000000e+00
1
Step 283000
Ar -1.332699e+00 0.000000e+00 0.000000e+00
1
Step 284000
Ar -1.373880e+00 0.000000e+00 0.000000e+00
1
Step 285000
Ar -1.360821e+00 0.000000e+00 0.000000e+00
1
Step 286000
Ar -1.339877e+00 0.000000e+00 0.000000e+00
1
Step 287000
Ar -1.404401e+00 0.000000e+00 0.000000e+00
1
Step 288000
Ar -1.309783e+00 0.000000e+00 0.000000e+00
1
Step 289000
Ar -8.341758e-01 0.000000e+00 0.000000e+00
1
Step 290000
Ar -1.071070e+00 0.000000e+00 0.000000e+00
1
Step 291000
Ar -1.100803e+00 0.000000e+00 0.000000e+00
1
Step 292000
Ar -7.502640e-01 0.000000e+00 0.000000e+00
1
Step 293000
Ar -6.986761e-01 0.000000e+00 0.000000e+00
1
Step 294000
Ar -7.116709e-01 0.000000e+00 0.000000e+00
1
Step 295000
Ar -8.515158e-01 0.000000e+00 0.000000e+00
1
Step 296000
Ar -9.892495e-01 0.000000e+00 0.000000e+00
1
Step 297000
Ar -8.664632e-01 0.000000e+00 0.000000e+00
1
Step 298000
Ar -9.410816e-01 0.000000e+00 0.000000e+00
1
Step 299000
Ar -8.778447e-01 0.000000e+00 0.000000e+00
1
Step 300000
Ar -9.282944e-01 0.000000e+00 0.000000e+00
1
Step 301000
Ar -7.800668e-01 0.000000e+00 0.000000e+00
1
Step 302000
Ar -7.307096e-01 0.000000e+00 0.000000e+00
1
Step 303000
Ar -7.365160e-01 0.000000e+00 0.000000e+00
1
Step 304000
Ar -8.352950e-01 0.000000e+00 0.000000e+00
1
Step 305000
Ar -7.963542e-01 0.000000e+00 0.000000e+00
1
Step 306000
Ar -7.637521e-01 0.000000e+00 0.000000e+00
1
Step 307000
Ar -7.537455e-01 0.000000e+00 0.000000e+00
1
Step 308000
Ar -7.939471e-01 0.000000e+00 0.000000e+00
1
Step 309000
Ar -5.395304e-01 0.000000e+00 0.000000e+00
1
Step 310000
Ar -5.088278e-01 0.000000e+00 0.000000e+00
1
Step 311000
Ar -4.715212e-01 0.000000e+00 0.000000e+00
1
Step 312000
Ar -3.379667e-01 0.000000e+00 0.000000e+00
1
Step 313000
Ar -3.063147e-01 0.000000e+00 0.000000e+00
1
Step 314000
Ar -3.726846e-01 0.000000e+00 0.000000e+00
1
Step 315000
Ar -2.229773e-01 0.000000e+00 0.000000e+00
1
Step 316000
Ar -1.696390e-01 0.000000e+00 0.000000e+00
1
Step 317000
Ar -3.977265e-01 0.000000e+00 0.000000e+00
1
Step 318000
Ar -4.595864e-01 0.000000e+00 0.000000e+00
1
Step 319000
Ar -4.369471e-01 0.000000e+00 0.000000e+00
1
Step 320000
Ar -5.779814e-01 0.000000e+00 0.000000e+00
1
Step 321000
Ar -6.335533e-01 0.000000e+00 0.000000e+00
1
Step 322000
Ar -4.939958e-01 0.000000e+00 0.000000e+00
1
Step 323000
Ar -5.304752e-01 0.000000e+00 0.000000e+00
1
Step 324000
Ar -5.640431e-01 0.000000e+00 0.000000e+00
1
Step 325000
Ar -5.457516e-01 0.000000e+00 0.000000e+00
1
Step 326000
Ar -5.900332e-01 0.000000e+00 0.000000e+00
1
Step 327000
Ar -6.836625e-01 0.000000e+00 0.000000e+00
1
Step 328000
Ar -6.722913e-01 0.000000e+00 0.000000e+00
1
Step 329000
Ar -6.179649e-01 0.000000e+00 0.000000e+00
1
Step 330000
Ar -6.377540e-01 0.000000e+00 0.000000e+00
1
Step 331000
Ar -6.226412e-01 0.000000e+00 0.000000e+00
1
Step 332000
Ar -7.031040e-01 0.000000e+00 0.000000e+00
1
Step 333000
Ar -6.588241e-01 0.000000e+00 0.000000e+00
1
Step 334000
Ar -6.799838e-01 0.000000e+00 0.000000e+00
1
Step 335000
Ar -7.176814e-01 0.000000e+00 0.000000e+00
1
Step 336000
Ar -7.412576e-01 0.000000e+00 0.000000e+00
1
Step 337000
Ar -4.879906e-01 0.000000e+00 0.000000e+00
1
Step 338000
Ar -5.006167e-01 0.000000e+00 0.000000e+00
1
Step 339000
Ar -5.269134e-01 0.000000e+00 0.000000e+00
1
Step 340000
Ar -4.555269e-01 0.000000e+00 0.000000e+00
1
Step 341000
Ar 8.548242e-03 0.000000e+00 0.000000e+00
1
Step 342000
Ar -4.005079e-02 0.000000e+00 0.000000e+00
1
Step 343000
Ar 2.009586e-01 0.000000e+00 0.000000e+00
1
Step 344000
Ar 5.325538e-01 0.000000e+00 0.000000e+00
1
Step 345000
Ar 4.850686e-01 0.000000e+00 0.000000e+00
1
Step 346000
Ar 6.117426e-01 0.000000e+00 0.000000e+00
1
Step 347000
Ar 6.559516e-01 0.000000e+00 0.000000e+00
1
Step 348000
Ar 7.021571e-01 0.000000e+00 0.000000e+00
1
Step 349000
Ar 6.783670e-01 0.000000e+00 0.000000e+00
1
Step 350000
Ar 7.320935e-01 0.000000e+00 0.000000e+00
1
Step 351000
Ar 7.182427e-01 0.000000e+00 0.000000e+00
1
Step 352000
Ar 6.994585e-01 0.000000e+00 0.000000e+00
1
Step 353000
Ar 1.247432e+00 0.000000e+00 0.000000e+00
1
Step 354000
Ar 1.040466e+00 0.000000e+00 0.000000e+00
1
Step 355000
Ar 1.005770e+00 0.000000e+00 0.000000e+00
1
Step 356000
Ar 9.983687e-01 0.000000e+00 0.000000e+00
1
Step 357000
Ar 1.207596e+00 0.000000e+00 0.000000e+00
1
Step 358000
Ar 1.271067e+00 0.000000e+00 0.000000e+00
1
Step 359000
Ar 1.152752e+00 0.000000e+00 0.000000e+00
1
Step 360000
Ar 1.142839e+00 0.000000e+00 0.000000e+00
1
Step 361000
Ar 1.170476e+00 0.000000e+00 0.000000e+00
1
Step 362000
Ar 1.192534e+00 0.000000e+00 0.000000e+00
1
Step 363000
Ar 1.220698e+00 0.000000e+00 0.000000e+00
1
Step 364000
Ar 1.312156e+00 0.000000e+00 0.000000e+00
1
Step 365000
Ar 1.069102e+00 0.000000e+00 0.000000e+00
1
Step 366000
Ar 1.087488e+00 0.000000e+00 0.000000e+00
1
Step 367000
Ar 1.074296e+00 0.000000e+00 0.000000e+00
1
Step 368000
Ar 1.103610e+00 0.000000e+00 0.000000e+00
1
Step 369000
Ar 1.112229e+00 0.000000e+00 0.000000e+00
1
Step 370000
Ar 1.131584e+00 0.000000e+00 0.000000e+00
1
Step 371000
Ar 1.283031e+00 0.000000e+00 0.000000e+00
1
Step 372000
Ar 1.231677e+00 0.000000e+00 0.000000e+00
1
Step 373000
Ar 1.296217e+00 0.000000e+00 0.000000e+00
1
Step 374000
Ar 1.160662e+00 0.000000e+00 0.000000e+00
1
Step 375000
Ar 1.260152e+00 0.000000e+00 0.000000e+00
1
Step 376000
Ar 1.201126e+00 0.000000e+00 0.000000e+00
1
Step 377000
Ar 1.244167e+00 0.000000e+00 0.000000e+00
1
Step 378000
Ar 1.032863e+00 0.000000e+00 0.000000e+00
1
Step 379000
Ar 1.089528e+00 0.000000e+00 0.000000e+00
1
Step 380000
Ar 1.063678e+00 0.000000e+00 0.000000e+00
1
Step 381000
Ar 7.799370e-01 0.000000e+00 0.000000e+00
1
Step 382000
Ar 8.365913e-01 0.000000e+00 0.000000e+00
1
Step 383000
Ar 9.093693e-01 0.000000e+00 0.000000e+00
1
Step 384000
Ar 8.271070e-01 0.000000e+00 0.000000e+00
1
Step 385000
Ar 8.835985e-01 0.000000e+00 0.000000e+00
1
Step 386000
Ar 1.180883e+00 0.000000e+00 0.000000e+00
1
Step 387000
Ar 1.082458e+00 0.000000e+00 0.000000e+00
1
Step 388000
Ar 8.388347e-01 0.000000e+00 0.000000e+00
1
Step 389000
Ar 9.246007e-01 0.000000e+00 0.000000e+00
1
Step 390000
Ar 9.749145e-01 0.000000e+00 0.000000e+00
1
Step 391000
Ar 1.023188e+00 0.000000e+00 0.000000e+00
1
Step 392000
Ar 1.043002e+00 0.000000e+00 0.000000e+00
1
Step 393000
Ar 1.373688e+00 0.000000e+00 0.000000e+00
1
Step 394000
Ar 1.351545e+00 0.000000e+00 0.000000e+00
1
Step 395000
Ar 1.304145e+00 0.000000e+00 0.000000e+00
1
Step 396000
Ar 1.136383e+00 0.000000e+00 0.000000e+00
1
Step 397000
Ar 1.165696e+00 0.000000e+00 0.000000e+00
1
Step 398000
Ar 1.213827e+00 0.000000e+00 0.000000e+00
1
Step 399000
Ar 1.145017e+00 0.000000e+00 0.000000e+00
1
Step 400000
Ar 8.189644e-01 0.000000e+00 0.000000e+00
1
Step 401000
Ar 7.663452e-01 0.000000e+00 0.000000e+00
1
Step 402000
Ar 7.172164e-01 0.000000e+00 0.000000e+00
1
Step 403000
Ar 8.083819e-01 0.000000e+00 0.000000e+00
1
Step 404000
Ar 9.631653e-01 0.000000e+00 0.000000e+00
1
Step 405000
Ar 9.110699e-01 0.000000e+00 0.000000e+00
1
Step 406000
Ar 1.009977e+00 0.000000e+00 0.000000e+00
1
Step 407000
Ar 9.346635e-01 0.000000e+00 0.000000e+00
1
Step 408000
Ar 9.504679e-01 0.000000e+00 0.000000e+00
1
Step 409000
Ar 8.920533e-01 0.000000e+00 0.000000e+00
1
Step 410000
Ar 3.892000e-01 0.000000e+00 0.000000e+00
1
Step 411000
Ar 4.042265e-01 0.000000e+00 0.000000e+00
1
Step 412000
Ar 3.783058e-01 0.000000e+00 0.000000e+00
1
Step 413000
Ar 4.459608e-01 0.000000e+00 0.000000e+00
1
Step 414000
Ar 4.337493e-01 0.000000e+00 0.000000e+00
1
Step 415000
Ar 5.921986e-01 0.000000e+00 0.000000e+00
1
Step 416000
Ar 6.385522e-01 0.000000e+00 0.000000e+00
1
Step 417000
Ar 6.847765e-01 0.000000e+00 0.000000e+00
1
Step 418000
Ar 8.458450e-01 0.000000e+00 0.000000e+00
1
Step 419000
Ar 8.590083e-01 0.000000e+00 0.000000e+00
1
Step 420000
Ar 8.658427e-01 0.000000e+00 0.000000e+00
1
Step 421000
Ar 8.202853e-01 0.000000e+00 0.000000e+00
1
Step 422000
Ar 1.229855e+00 0.000000e+00 0.000000e+00
1
Step 423000
Ar 1.049603e+00 0.000000e+00 0.000000e+00
1
Step 424000
Ar 1.059373e+00 0.000000e+00 0.000000e+00
1
Step 425000
Ar 1.123786e+00 0.000000e+00 0.000000e+00
1
Step 426000
Ar 1.324422e+00 0.000000e+00 0.000000e+00
1
Step 427000
Ar 1.338487e+00 0.000000e+00 0.000000e+00
1
Step 428000
Ar 1.362485e+00 0.000000e+00 0.000000e+00
1
Step 429000
Ar 1.389189e+00 0.000000e+00 0.000000e+00
1
Step 430000
Ar 1.176409e+00 0.000000e+00 0.000000e+00
1
Step 431000
Ar 1.416460e+00 0.000000e+00 0.000000e+00
1
Step 432000
Ar 1.328024e+00 0.000000e+00 0.000000e+00
1
Step 433000
Ar 1.399777e+00 0.000000e+00 0.000000e+00
1
Step 434000
Ar 1.459267e+00 0.000000e+00 0.000000e+00
1
Step 435000
Ar 1.339876e+00 0.000000e+00 0.000000e+00
1
Step 436000
Ar 1.289727e+00 0.000000e+00 0.000000e+00
1
Step 437000
Ar 1.271883e+00 0.000000e+00 0.000000e+00
1
Step 438000
Ar 1.378268e+00 0.000000e+00 0.000000e+00
1
Step 439000
Ar 1.215862e+00 0.000000e+00 0.000000e+00
1
Step 440000
Ar 1.255079e+00 0.000000e+00 0.000000e+00
1
Step 441000
Ar 1.239246e+00 0.000000e+00 0.000000e+00
1
Step 442000
Ar 1.263316e+00 0.000000e+00 0.000000e+00
1
Step 443000
Ar 1.436281e+00 0.000000e+00 0.000000e+00
1
Step 444000
Ar 1.429455e+00 0.000000e+00 0.000000e+00
1
Step 445000
Ar 1.352509e+00 0.000000e+00 0.000000e+00
1
Step 446000
Ar 1.408324e+00 0.000000e+00 0.000000e+00
1
Step 447000
Ar 1.373249e+00 0.000000e+00 0.000000e+00
1
Step 448000
Ar 1.187664e+00 0.000000e+00 0.000000e+00
1
Step 449000
Ar 1.198058e+00 0.000000e+00 0.000000e+00
1
Step 450000
Ar 1.108890e+00 0.000000e+00 0.000000e+00
1
Step 451000
Ar 9.035971e-01 0.000000e+00 0.000000e+00
1
Step 452000
Ar 1.035714e+00 0.000000e+00 0.000000e+00
1
Step 453000
Ar 9.825449e-01 0.000000e+00 0.000000e+00
1
Step 454000
Ar 9.507740e-01 0.000000e+00 0.000000e+00
1
Step 455000
Ar 1.097615e+00 0.000000e+00 0.000000e+00
1
Step 456000
Ar 8.688851e-01 0.000000e+00 0.000000e+00
1
Step 457000
Ar 9.234270e-01 0.000000e+00 0.000000e+00
1
Step 458000
Ar 9.183013e-01 0.000000e+00 0.000000e+00
1
Step 459000
Ar 9.358809e-01 0.000000e+00 0.000000e+00
1
Step 460000
Ar 9.419903e-01 0.000000e+00 0.000000e+00
1
Step 461000
Ar 5.543967e-01 0.000000e+00 0.000000e+00
1
Step 462000
Ar 5.154997e-01 0.000000e+00 0.000000e+00
1
Step 463000
Ar 6.469774e-01 0.000000e+00 0.000000e+00
1
Step 464000
Ar 7.908344e-01 0.000000e+00 0.000000e+00
1
Step 465000
Ar 7.949370e-01 0.000000e+00 0.000000e+00
1
Step 466000
Ar 5.217583e-01 0.000000e+00 0.000000e+00
1
Step 467000
Ar 5.325668e-01 0.000000e+00 0.000000e+00
1
Step 468000
Ar 5.813060e-01 0.000000e+00 0.000000e+00
1
Step 469000
Ar 5.742079e-01 0.000000e+00 0.000000e+00
1
Step 470000
Ar 1.314597e+00 0.000000e+00 0.000000e+00
1
Step 471000
Ar 1.276948e+00 0.000000e+00 0.000000e+00
1
Step 472000
Ar 1.292227e+00 0.000000e+00 0.000000e+00
1
Step 473000
Ar 1.157797e+00 0.000000e+00 0.000000e+00
1
Step 474000
Ar 1.111537e+00 0.000000e+00 0.000000e+00
1
Step 475000
Ar 1.136076e+00 0.000000e+00 0.000000e+00
1
Step 476000
Ar 1.204569e+00 0.000000e+00 0.000000e+00
1
Step 477000
Ar 9.715114e-01 0.000000e+00 0.000000e+00
1
Step 478000
Ar 9.994398e-01 0.000000e+00 0.000000e+00
1
Step 479000
Ar 1.013972e+00 0.000000e+00 0.000000e+00
1
Step 480000
Ar 1.021292e+00 0.000000e+00 0.000000e+00
1
Step 481000
Ar 8.787459e-01 0.000000e+00 0.000000e+00
1
Step 482000
Ar 6.133428e-01 0.000000e+00 0.000000e+00
1
Step 483000
Ar 7.135261e-01 0.000000e+00 0.000000e+00
1
Step 484000
Ar 7.092861e-01 0.000000e+00 0.000000e+00
1
Step 485000
Ar 3.671742e-01 0.000000e+00 0.000000e+00
1
Step 486000
Ar 3.160401e-01 0.000000e+00 0.000000e+00
1
Step 487000
Ar 2.194820e-01 0.000000e+00 0.000000e+00
1
Step 488000
Ar 5.451718e-02 0.000000e+00 0.000000e+00
1
Step 489000
Ar 4.821271e-02 0.000000e+00 0.000000e+00
1
Step 490000
Ar -1.429957e-02 0.000000e+00 0.000000e+00
1
Step 491000
Ar -1.161548e-01 0.000000e+00 0.000000e+00
1
Step 492000
Ar -7.118778e-02 0.000000e+00 0.000000e+00
1
Step 493000
Ar -1.339133e-01 0.000000e+00 0.000000e+00
1
Step 494000
Ar -1.483247e-01 0.000000e+00 0.000000e+00
1
Step 495000
Ar -4.140735e-01 0.000000e+00 0.000000e+00
1
Step 496000
Ar -2.875272e-01 0.000000e+00 0.000000e+00
1
Step 497000
Ar -4.087170e-01 0.000000e+00 0.000000e+00
1
Step 498000
Ar -2.646609e-01 0.000000e+00 0.000000e+00
1
Step 499000
Ar -2.767290e-01 0.000000e+00 0.000000e+00
1
Step 500000
Ar -3.632179e-01 0.000000e+00 0.000000e+00
1
Step 501000
Ar -3.142477e-01 0.000000e+00 0.000000e+00
1
Step 502000
Ar -3.322106e-01 0.000000e+00 0.000000e+00
1
Step 503000
Ar -1.797950e-01 0.000000e+00 0.000000e+00
1
Step 504000
Ar -4.588578e-02 0.000000e+00 0.000000e+00
1
Step 505000
Ar -1.040498e-01 0.000000e+00 0.000000e+00
1
Step 506000
Ar -2.510289e-01 0.000000e+00 0.000000e+00
1
Step 507000
Ar -1.905455e-01 0.000000e+00 0.000000e+00
1
Step 508000
Ar -1.285817e-01 0.000000e+00 0.000000e+00
1
Step 509000
Ar -8.451293e-02 0.000000e+00 0.000000e+00
1
Step 510000
Ar -7.928374e-02 0.000000e+00 0.000000e+00
1
Step 511000
Ar -6.311718e-02 0.000000e+00 0.000000e+00
1
Step 512000
Ar -5.251157e-02 0.000000e+00 0.000000e+00
1
Step 513000
Ar 3.275604e-02 0.000000e+00 0.000000e+00
1
Step 514000
Ar -3.018173e-02 0.000000e+00 0.000000e+00
1
Step 515000
Ar 3.422443e-02 0.000000e+00 0.000000e+00
1
Step 516000
Ar 2.781621e-01 0.000000e+00 0.000000e+00
1
Step 517000
Ar 3.024518e-01 0.000000e+00 0.000000e+00
1
Step 518000
Ar 8.158245e-02 0.000000e+00 0.000000e+00
1
Step 519000
Ar 7.351612e-02 0.000000e+00 0.000000e+00
1
Step 520000
Ar 1.188872e-01 0.000000e+00 0.000000e+00
1
Step 521000
Ar 2.661037e-01 0.000000e+00 0.000000e+00
1
Step 522000
Ar 3.558766e-01 0.000000e+00 0.000000e+00
1
Step 523000
Ar 4.708599e-01 0.000000e+00 0.000000e+00
1
Step 524000
Ar 4.373783e-01 0.000000e+00 0.000000e+00
1
Step 525000
Ar 2.890182e-01 0.000000e+00 0.000000e+00
1
Step 526000
Ar 2.479979e-01 0.000000e+00 0.000000e+00
1
Step 527000
Ar 1.019921e-01 0.000000e+00 0.000000e+00
1
Step 528000
Ar 4.882779e-01 0.000000e+00 0.000000e+00
1
Step 529000
Ar 5.007836e-01 0.000000e+00 0.000000e+00
1
Step 530000
Ar 4.934658e-01 0.000000e+00 0.000000e+00
1
Step 531000
Ar 4.515044e-01 0.000000e+00 0.000000e+00
1
Step 532000
Ar 3.204174e-01 0.000000e+00 0.000000e+00
1
Step 533000
Ar 4.247077e-01 0.000000e+00 0.000000e+00
1
Step 534000
Ar 3.404953e-01 0.000000e+00 0.000000e+00
1
Step 535000
Ar 1.307804e-01 0.000000e+00 0.000000e+00
1
Step 536000
Ar 6.221211e-02 0.000000e+00 0.000000e+00
1
Step 537000
Ar 1.881633e-01 0.000000e+00 0.000000e+00
1
Step 538000
Ar 1.531943e-01 0.000000e+00 0.000000e+00
1
Step 539000
Ar 1.453993e-01 0.000000e+00 0.000000e+00
1
Step 540000
Ar 1.666086e-01 0.000000e+00 0.000000e+00
1
Step 541000
Ar 2.317610e-01 0.000000e+00 0.000000e+00
1
Step 542000
Ar 1.772364e-01 0.000000e+00 0.000000e+00
1
Step 543000
Ar 9.199420e-02 0.000000e+00 0.000000e+00
1
Step 544000
Ar 1.101171e-01 0.000000e+00 0.000000e+00
1
Step 545000
Ar 3.317223e-01 0.000000e+00 0.000000e+00
1
Step 546000
Ar 3.472601e-01 0.000000e+00 0.000000e+00
1
Step 547000
Ar 4.134929e-01 0.000000e+00 0.000000e+00
1
Step 548000
Ar 3.951103e-01 0.000000e+00 0.000000e+00
1
Step 549000
Ar 3.570141e-01 0.000000e+00 0.000000e+00
1
Step 550000
Ar 6.901793e-01 0.000000e+00 0.000000e+00
1
Step 551000
Ar 6.592915e-01 0.000000e+00 0.000000e+00
1
Step 552000
Ar 5.847734e-01 0.000000e+00 0.000000e+00
1
Step 553000
Ar 6.649084e-01 0.000000e+00 0.000000e+00
1
Step 554000
Ar 3.710470e-01 0.000000e+00 0.000000e+00
1
Step 555000
Ar 4.747496e-01 0.000000e+00 0.000000e+00
1
Step 556000
Ar 5.207211e-01 0.000000e+00 0.000000e+00
1
Step 557000
Ar 5.672092e-01 0.000000e+00 0.000000e+00
1
Step 558000
Ar 5.436412e-01 0.000000e+00 0.000000e+00
1
Step 559000
Ar 5.523596e-01 0.000000e+00 0.000000e+00
1
Step 560000
Ar 5.341592e-01 0.000000e+00 0.000000e+00
1
Step 561000
Ar 2.136159e-01 0.000000e+00 0.000000e+00
1
Step 562000
Ar 1.919134e-01 0.000000e+00 0.000000e+00
1
Step 563000
Ar 2.955237e-01 0.000000e+00 0.000000e+00
1
Step 564000
Ar 3.128072e-01 0.000000e+00 0.000000e+00
1
Step 565000
Ar 2.389580e-01 0.000000e+00 0.000000e+00
1
Step 566000
Ar 2.264620e-01 0.000000e+00 0.000000e+00
1
Step 567000
Ar 4.606649e-01 0.000000e+00 0.000000e+00
1
Step 568000
Ar 4.688438e-01 0.000000e+00 0.000000e+00
1
Step 569000
Ar 4.282449e-01 0.000000e+00 0.000000e+00
1
Step 570000
Ar 4.512525e-01 0.000000e+00 0.000000e+00
1
Step 571000
Ar 3.321739e-01 0.000000e+00 0.000000e+00
1
Step 572000
Ar 3.823578e-01 0.000000e+00 0.000000e+00
1
Step 573000
Ar 3.974155e-01 0.000000e+00 0.000000e+00
1
Step 574000
Ar 5.062908e-01 0.000000e+00 0.000000e+00
1
Step 575000
Ar 4.945736e-01 0.000000e+00 0.000000e+00
1
Step 576000
Ar 3.784986e-01 0.000000e+00 0.000000e+00
1
Step 577000
Ar 2.736166e-01 0.000000e+00 0.000000e+00
1
Step 578000
Ar 2.566354e-01 0.000000e+00 0.000000e+00
1
Step 579000
Ar 3.633620e-01 0.000000e+00 0.000000e+00
1
Step 580000
Ar 3.462383e-01 0.000000e+00 0.000000e+00
1
Step 581000
Ar 4.034777e-01 0.000000e+00 0.000000e+00
1
Step 582000
Ar 4.796207e-01 0.000000e+00 0.000000e+00
1
Step 583000
Ar 4.147292e-01 0.000000e+00 0.000000e+00
1
Step 584000
Ar 5.591883e-01 0.000000e+00 0.000000e+00
1
Step 585000
Ar 8.576650e-01 0.000000e+00 0.000000e+00
1
Step 586000
Ar 7.522980e-01 0.000000e+00 0.000000e+00
1
Step 587000
Ar 7.852244e-01 0.000000e+00 0.000000e+00
1
Step 588000
Ar 7.579346e-01 0.000000e+00 0.000000e+00
1
Step 589000
Ar 7.751387e-01 0.000000e+00 0.000000e+00
1
Step 590000
Ar 8.016482e-01 0.000000e+00 0.000000e+00
1
Step 591000
Ar 8.332951e-01 0.000000e+00 0.000000e+00
1
Step 592000
Ar 8.479100e-01 0.000000e+00 0.000000e+00
1
Step 593000
Ar 8.977560e-01 0.000000e+00 0.000000e+00
1
Step 594000
Ar 7.258953e-01 0.000000e+00 0.000000e+00
1
Step 595000
Ar 7.454842e-01 0.000000e+00 0.000000e+00
1
Step 596000
Ar 7.276316e-01 0.000000e+00 0.000000e+00
1
Step 597000
Ar 7.264785e-01 0.000000e+00 0.000000e+00
1
Step 598000
Ar 6.321722e-01 0.000000e+00 0.000000e+00
1
Step 599000
Ar 6.496541e-01 0.000000e+00 0.000000e+00
1
Step 600000
Ar 6.790120e-01 0.000000e+00 0.000000e+00
1
Step 601000
Ar 6.851487e-01 0.000000e+00 0.000000e+00
1
Step 602000
Ar 2.089777e-01 0.000000e+00 0.000000e+00
1
Step 603000
Ar -9.067731e-02 0.000000e+00 0.000000e+00
1
Step 604000
Ar -5.258154e-03 0.000000e+00 0.000000e+00
1
Step 605000
Ar 2.041491e-02 0.000000e+00 0.000000e+00
1
Step 606000
Ar 1.802824e-03 0.000000e+00 0.000000e+00
1
Step 607000
Ar 1.433568e-01 0.000000e+00 0.000000e+00
1
Step 608000
Ar 1.188422e-01 0.000000e+00 0.000000e+00
1
Step 609000
Ar 1.326038e-01 0.000000e+00 0.000000e+00
1
Step 610000
Ar -2.953366e-01 0.000000e+00 0.000000e+00
1
Step 611000
Ar -2.316078e-01 0.000000e+00 0.000000e+00
1
Step 612000
Ar -2.390754e-01 0.000000e+00 0.000000e+00
1
Step 613000
Ar -2.674134e-01 0.000000e+00 0.000000e+00
1
Step 614000
Ar -2.122222e-01 0.000000e+00 0.000000e+00
1
Step 615000
Ar -1.593739e-01 0.000000e+00 0.000000e+00
1
Step 616000
Ar -4.696951e-01 0.000000e+00 0.000000e+00
1
Step 617000
Ar -3.796288e-01 0.000000e+00 0.000000e+00
1
Step 618000
Ar -5.367376e-01 0.000000e+00 0.000000e+00
1
Step 619000
Ar -3.672658e-01 0.000000e+00 0.000000e+00
1
Step 620000
Ar -2.212772e-01 0.000000e+00 0.000000e+00
1
Step 621000
Ar -1.025284e-01 0.000000e+00 0.000000e+00
1
Step 622000
Ar -1.631806e-01 0.000000e+00 0.000000e+00
1
Step 623000
Ar -1.901736e-02 0.000000e+00 0.000000e+00
1
Step 624000
Ar -1.396145e-01 0.000000e+00 0.000000e+00
1
Step 625000
Ar -1.951608e-01 0.000000e+00 0.000000e+00
1
Step 626000
Ar -3.634921e-01 0.000000e+00 0.000000e+00
1
Step 627000
Ar -2.540710e-01 0.000000e+00 0.000000e+00
1
Step 628000
Ar -2.409170e-01 0.000000e+00 0.000000e+00
1
Step 629000
Ar -2.876093e-01 0.000000e+00 0.000000e+00
1
Step 630000
Ar -1.537232e-01 0.000000e+00 0.000000e+00
1
Step 631000
Ar 2.389105e-01 0.000000e+00 0.000000e+00
1
Step 632000
Ar -3.534889e-02 0.000000e+00 0.000000e+00
1
Step 633000
Ar 1.639633e-01 0.000000e+00 0.000000e+00
1
Step 634000
Ar 2.765874e-01 0.000000e+00 0.000000e+00
1
Step 635000
Ar 1.751617e-01 0.000000e+00 0.000000e+00
1
Step 636000
Ar 1.446410e-02 0.000000e+00 0.000000e+00
1
Step 637000
Ar 8.817778e-02 0.000000e+00 0.000000e+00
1
Step 638000
Ar 6.290358e-02 0.000000e+00 0.000000e+00
1
Step 639000
Ar 1.411002e-01 0.000000e+00 0.000000e+00
1
Step 640000
Ar -6.354523e-03 0.000000e+00 0.000000e+00
1
Step 641000
Ar -1.145091e-01 0.000000e+00 0.000000e+00
1
Step 642000
Ar -7.685817e-02 0.000000e+00 0.000000e+00
1
Step 643000
Ar -3.152653e-01 0.000000e+00 0.000000e+00
1
Step 644000
Ar -3.499422e-01 0.000000e+00 0.000000e+00
1
Step 645000
Ar -3.430636e-01 0.000000e+00 0.000000e+00
1
Step 646000
Ar -3.060663e-01 0.000000e+00 0.000000e+00
1
Step 647000
Ar -1.781214e-01 0.000000e+00 0.000000e+00
1
Step 648000
Ar -2.827844e-01 0.000000e+00 0.000000e+00
1
Step 649000
Ar -2.043792e-01 0.000000e+00 0.000000e+00
1
Step 650000
Ar -1.474305e-01 0.000000e+00 0.000000e+00
1
Step 651000