1
Step 120000
Ar 9.900595e-01 0.000000e+00 0.000000e+00
1
Step 121000
Ar 9.919690e-01 0.000000e+00 0.000000e+00
1
Step 122000
Ar 9.895738e-01 0.000000e+00 0.000000e+00
1
Step 123000
Ar 1.009786e+00 0.000000e+00 0.000000e+00
1
Step 124000
Ar 9.994397e-01 0.000000e+00 0.000000e+00
1
Step 125000
Ar 1.003080e+00 0.000000e+00 0.000000e+00
1
Step 126000
Ar 1.016136e+00 0.000000e+00 0.000000e+00
1
Step 127000
Ar 1.025192e+00 0.000000e+00 0.000000e+00
1
Step 128000
Ar 1.023696e+00 0.000000e+00 0.000000e+00
1
Step 129000
Ar 1.020022e+00 0.000000e+00 0.000000e+00
1
Step 130000
Ar 9.854156e-01 0.000000e+00 0.000000e+00
1
Step 131000
Ar 9.896312e-01 0.000000e+00 0.000000e+00
1
Step 132000
Ar 9.845711e-01 0.000000e+00 0.000000e+00
1
Step 133000
Ar 9.938194e-01 0.000000e+00 0.000000e+00
1
Step 134000
Ar 9.864808e-01 0.000000e+00 0.000000e+00
1
Step 135000
Ar 9.912888e-01 0.000000e+00 0.000000e+00
1
Step 136000
Ar 9.734106e-01 0.000000e+00 0.000000e+00
1
Step 137000
Ar 9.967166e-01 0.000000e+00 0.000000e+00
1
Step 138000
Ar 9.958790e-01 0.000000e+00 0.000000e+00
1
Step 139000
Ar 1.034885e+00 0.000000e+00 0.000000e+00
1
Step 140000
Ar 1.028186e+00 0.000000e+00 0.000000e+00
1
Step 141000
Ar 1.036213e+00 0.000000e+00 0.000000e+00
1
Step 142000
Ar 1.041907e+00 0.000000e+00 0.000000e+00
1
Step 143000
Ar 1.052857e+00 0.000000e+00 0.000000e+00
1
Step 144000
Ar 9.747408e-01 0.000000e+00 0.000000e+00
1
Step 145000
Ar 9.663197e-01 0.000000e+00 0.000000e+00
1
Step 146000
Ar 9.698489e-01 0.000000e+00 0.000000e+00
1
Step 147000
Ar 9.629681e-01 0.000000e+00 0.000000e+00
1
Step 148000
Ar 9.723402e-01 0.000000e+00 0.000000e+00
1
Step 149000
Ar 9.495435e-01 0.000000e+00 0.000000e+00
1
Step 150000
Ar 9.510933e-01 0.000000e+00 0.000000e+00
1
Step 151000
Ar 9.438019e-01 0.000000e+00 0.000000e+00
1
Step 152000
Ar 9.291741e-01 0.000000e+00 0.000000e+00
1
Step 153000
Ar 9.373859e-01 0.000000e+00 0.000000e+00
1
Step 154000
Ar 1.016414e+00 0.000000e+00 0.000000e+00
1
Step 155000
Ar 8.128276e-01 0.000000e+00 0.000000e+00
1
Step 156000
Ar 1.011528e+00 0.000000e+00 0.000000e+00
1
Step 157000
Ar 9.641185e-01 0.000000e+00 0.000000e+00
1
Step 158000
Ar 1.023357e+00 0.000000e+00 0.000000e+00
1
Step 159000
Ar 1.022927e+00 0.000000e+00 0.000000e+00
1
Step 160000
Ar 1.021191e+00 0.000000e+00 0.000000e+00
1
Step 161000
Ar 1.022199e+00 0.000000e+00 0.000000e+00
1
Step 162000
Ar 1.027155e+00 0.000000e+00 0.000000e+00
1
Step 163000
Ar 1.029965e+00 0.000000e+00 0.000000e+00
1
Step 164000
Ar 1.059239e+00 0.000000e+00 0.000000e+00
1
Step 165000
Ar 1.052507e+00 0.000000e+00 0.000000e+00
1
Step 166000
Ar 1.058813e+00 0.000000e+00 0.000000e+00
1
Step 167000
Ar 1.071049e+00 0.000000e+00 0.000000e+00
1
Step 168000
Ar 1.075048e+00 0.000000e+00 0.000000e+00
1
Step 169000
Ar 8.763328e-01 0.000000e+00 0.000000e+00
1
Step 170000
Ar 1.018097e+00 0.000000e+00 0.000000e+00
1
Step 171000
Ar 1.017301e+00 0.000000e+00 0.000000e+00
1
Step 172000
Ar 1.010023e+00 0.000000e+00 0.000000e+00
1
Step 173000
Ar 1.017026e+00 0.000000e+00 0.000000e+00
1
Step 174000
Ar 1.014075e+00 0.000000e+00 0.000000e+00
1
Step 175000
Ar 9.685351e-01 0.000000e+00 0.000000e+00
1
Step 176000
Ar 1.043415e+00 0.000000e+00 0.000000e+00
1
Step 177000
Ar 1.047543e+00 0.000000e+00 0.000000e+00
1
Step 178000
Ar 1.088068e+00 0.000000e+00 0.000000e+00
1
Step 179000
Ar 1.087932e+00 0.000000e+00 0.000000e+00
1
Step 180000
Ar 9.176826e-01 0.000000e+00 0.000000e+00
1
Step 181000
Ar 9.131995e-01 0.000000e+00 0.000000e+00
1
Step 182000
Ar 9.162182e-01 0.000000e+00 0.000000e+00
1
Step 183000
Ar 9.521717e-01 0.000000e+00 0.000000e+00
1
Step 184000
Ar 9.756477e-01 0.000000e+00 0.000000e+00
1
Step 185000
Ar 1.045877e+00 0.000000e+00 0.000000e+00
1
Step 186000
Ar 9.111130e-01 0.000000e+00 0.000000e+00
1
Step 187000
Ar 9.144702e-01 0.000000e+00 0.000000e+00
1
Step 188000
Ar 1.028688e+00 0.000000e+00 0.000000e+00
1
Step 189000
Ar 8.969575e-01 0.000000e+00 0.000000e+00
1
Step 190000
Ar 9.783315e-01 0.000000e+00 0.000000e+00
1
Step 191000
Ar 1.014677e+00 0.000000e+00 0.000000e+00
1
Step 192000
Ar 9.107452e-01 0.000000e+00 0.000000e+00
1
Step 193000
Ar 1.074327e+00 0.000000e+00 0.000000e+00
1
Step 194000
Ar 1.037756e+00 0.000000e+00 0.000000e+00
1
Step 195000
Ar 7.967170e-01 0.000000e+00 0.000000e+00
1
Step 196000
Ar 1.059748e+00 0.000000e+00 0.000000e+00
1
Step 197000
Ar 1.058939e+00 0.000000e+00 0.000000e+00
1
Step 198000
Ar 1.056335e+00 0.000000e+00 0.000000e+00
1
Step 199000
Ar 1.060774e+00 0.000000e+00 0.000000e+00
1
Step 200000
Ar 1.016904e+00 0.000000e+00 0.000000e+00
1
Step 201000
Ar 1.001949e+00 0.000000e+00 0.000000e+00
1
Step 202000
Ar 1.054119e+00 0.000000e+00 0.000000e+00
1
Step 203000
Ar 9.780011e-01 0.000000e+00 0.000000e+00
1
Step 204000
Ar 1.006598e+00 0.000000e+00 0.000000e+00
1
Step 205000
Ar 8.806623e-01 0.000000e+00 0.000000e+00
1
Step 206000
Ar 8.856891e-01 0.000000e+00 0.000000e+00
1
Step 207000
Ar 8.825341e-01 0.000000e+00 0.000000e+00
1
Step 208000
Ar 9.668347e-01 0.000000e+00 0.000000e+00
1
Step 209000
Ar 9.243765e-01 0.000000e+00 0.000000e+00
1
Step 210000
Ar 9.567148e-01 0.000000e+00 0.000000e+00
1
Step 211000
Ar 1.001906e+00 0.000000e+00 0.000000e+00
1
Step 212000
Ar 1.053558e+00 0.000000e+00 0.000000e+00
1
Step 213000
Ar 1.148694e+00 0.000000e+00 0.000000e+00
1
Step 214000
Ar 1.081347e+00 0.000000e+00 0.000000e+00
1
Step 215000
Ar 1.167800e+00 0.000000e+00 0.000000e+00
1
Step 216000
Ar 8.323436e-01 0.000000e+00 0.000000e+00
1
Step 217000
Ar 9.095272e-01 0.000000e+00 0.000000e+00
1
Step 218000
Ar 8.858629e-01 0.000000e+00 0.000000e+00
1
Step 219000
Ar 8.874715e-01 0.000000e+00 0.000000e+00
1
Step 220000
Ar 8.801625e-01 0.000000e+00 0.000000e+00
1
Step 221000
Ar 1.024564e+00 0.000000e+00 0.000000e+00
1
Step 222000
Ar 8.171312e-01 0.000000e+00 0.000000e+00
1
Step 223000
Ar 8.834689e-01 0.000000e+00 0.000000e+00
1
Step 224000
Ar 8.854040e-01 0.000000e+00 0.000000e+00
1
Step 225000
Ar 8.896842e-01 0.000000e+00 0.000000e+00
1
Step 226000
Ar 8.724846e-01 0.000000e+00 0.000000e+00
1
Step 227000
Ar 1.029231e+00 0.000000e+00 0.000000e+00
1
Step 228000
Ar 1.029394e+00 0.000000e+00 0.000000e+00
1
Step 229000
Ar 1.032788e+00 0.000000e+00 0.000000e+00
1
Step 230000
Ar 1.031061e+00 0.000000e+00 0.000000e+00
1
Step 231000
Ar 1.098996e+00 0.000000e+00 0.000000e+00
1
Step 232000
Ar 1.118199e+00 0.000000e+00 0.000000e+00
1
Step 233000
Ar 1.030912e+00 0.000000e+00 0.000000e+00
1
Step 234000
Ar 1.026996e+00 0.000000e+00 0.000000e+00
1
Step 235000
Ar 1.125769e+00 0.000000e+00 0.000000e+00
1
Step 236000
Ar 9.785244e-01 0.000000e+00 0.000000e+00
1
Step 237000
Ar 1.084144e+00 0.000000e+00 0.000000e+00
1
Step 238000
Ar 1.055216e+00 0.000000e+00 0.000000e+00
1
Step 239000
Ar 9.780983e-01 0.000000e+00 0.000000e+00
1
Step 240000
Ar 8.763203e-01 0.000000e+00 0.000000e+00
1
Step 241000
Ar 8.737422e-01 0.000000e+00 0.000000e+00
1
Step 242000
Ar 9.663491e-01 0.000000e+00 0.000000e+00
1
Step 243000
Ar 1.057308e+00 0.000000e+00 0.000000e+00
1
Step 244000
Ar 9.473911e-01 0.000000e+00 0.000000e+00
1
Step 245000
Ar 1.056709e+00 0.000000e+00 0.000000e+00
1
Step 246000
Ar 1.096487e+00 0.000000e+00 0.000000e+00
1
Step 247000
Ar 1.103083e+00 0.000000e+00 0.000000e+00
1
Step 248000
Ar 1.094772e+00 0.000000e+00 0.000000e+00
1
Step 249000
Ar 1.097432e+00 0.000000e+00 0.000000e+00
1
Step 250000
Ar 1.097910e+00 0.000000e+00 0.000000e+00
1
Step 251000
Ar 1.107230e+00 0.000000e+00 0.000000e+00
1
Step 252000
Ar 1.029768e+00 0.000000e+00 0.000000e+00
1
Step 253000
Ar 1.030208e+00 0.000000e+00 0.000000e+00
1
Step 254000
Ar 1.031628e+00 0.000000e+00 0.000000e+00
1
Step 255000
Ar 1.030074e+00 0.000000e+00 0.000000e+00
1
Step 256000
Ar 1.026794e+00 0.000000e+00 0.000000e+00
1
Step 257000
Ar 8.812324e-01 0.000000e+00 0.000000e+00
1
Step 258000
Ar 1.062238e+00 0.000000e+00 0.000000e+00
1
Step 259000
Ar 9.584400e-01 0.000000e+00 0.000000e+00
1
Step 260000
Ar 9.966663e-01 0.000000e+00 0.000000e+00
1
Step 261000
Ar 9.648256e-01 0.000000e+00 0.000000e+00
1
Step 262000
Ar 9.625726e-01 0.000000e+00 0.000000e+00
1
Step 263000
Ar 8.543570e-01 0.000000e+00 0.000000e+00
1
Step 264000
Ar 9.020928e-01 0.000000e+00 0.000000e+00
1
Step 265000
Ar 8.012940e-01 0.000000e+00 0.000000e+00
1
Step 266000
Ar 1.084012e+00 0.000000e+00 0.000000e+00
1
Step 267000
Ar 1.012320e+00 0.000000e+00 0.000000e+00
1
Step 268000
Ar 9.111804e-01 0.000000e+00 0.000000e+00
1
Step 269000
Ar 1.095626e+00 0.000000e+00 0.000000e+00
1
Step 270000
Ar 9.571167e-01 0.000000e+00 0.000000e+00
1
Step 271000
Ar 9.442373e-01 0.000000e+00 0.000000e+00
1
Step 272000
Ar 9.242230e-01 0.000000e+00 0.000000e+00
1
Step 273000
Ar 1.117361e+00 0.000000e+00 0.000000e+00
1
Step 274000
Ar 1.113590e+00 0.000000e+00 0.000000e+00
1
Step 275000
Ar 1.112647e+00 0.000000e+00 0.000000e+00
1
Step 276000
Ar 1.111808e+00 0.000000e+00 0.000000e+00
1
Step 277000
Ar 1.116499e+00 0.000000e+00 0.000000e+00
1
Step 278000
Ar 9.179797e-01 0.000000e+00 0.000000e+00
1
Step 279000
Ar 8.738211e-01 0.000000e+00 0.000000e+00
1
Step 280000
Ar 8.729940e-01 0.000000e+00 0.000000e+00
1
Step 281000
Ar 8.724041e-01 0.000000e+00 0.000000e+00
1
Step 282000
Ar 8.754728e-01 0.000000e+00 0.000000e+00
1
Step 283000
Ar 7.100836e-01 0.000000e+00 0.000000e+00
1
Step 284000
Ar 9.820706e-01 0.000000e+00 0.000000e+00
1
Step 285000
Ar 1.105477e+00 0.000000e+00 0.000000e+00
1
Step 286000
Ar 1.187940e+00 0.000000e+00 0.000000e+00
1
Step 287000
Ar 1.028177e+00 0.000000e+00 0.000000e+00
1
Step 288000
Ar 7.946976e-01 0.000000e+00 0.000000e+00
1
Step 289000
Ar 9.302637e-01 0.000000e+00 0.000000e+00
1
Step 290000
Ar 9.416477e-01 0.000000e+00 0.000000e+00
1
Step 291000
Ar 9.407463e-01 0.000000e+00 0.000000e+00
1
Step 292000
Ar 9.949438e-01 0.000000e+00 0.000000e+00
1
Step 293000
Ar 1.027921e+00 0.000000e+00 0.000000e+00
1
Step 294000
Ar 9.455786e-01 0.000000e+00 0.000000e+00
1
Step 295000
Ar 1.109586e+00 0.000000e+00 0.000000e+00
1
Step 296000
Ar 1.291092e+00 0.000000e+00 0.000000e+00
1
Step 297000
Ar 9.318986e-01 0.000000e+00 0.000000e+00
1
Step 298000
Ar 9.506832e-01 0.000000e+00 0.000000e+00
1
Step 299000
Ar 1.038170e+00 0.000000e+00 0.000000e+00
1
Step 300000
Ar 1.137795e+00 0.000000e+00 0.000000e+00
1
Step 301000
Ar 8.422143e-01 0.000000e+00 0.000000e+00
1
Step 302000
Ar 8.495587e-01 0.000000e+00 0.000000e+00
1
Step 303000
Ar 1.060106e+00 0.000000e+00 0.000000e+00
1
Step 304000
Ar 9.140779e-01 0.000000e+00 0.000000e+00
1
Step 305000
Ar 1.114561e+00 0.000000e+00 0.000000e+00
1
Step 306000
Ar 1.144888e+00 0.000000e+00 0.000000e+00
1
Step 307000
Ar 1.110376e+00 0.000000e+00 0.000000e+00
1
Step 308000
Ar 1.062404e+00 0.000000e+00 0.000000e+00
1
Step 309000
Ar 7.729579e-01 0.000000e+00 0.000000e+00
1
Step 310000
Ar 1.039450e+00 0.000000e+00 0.000000e+00
1
Step 311000
Ar 9.726197e-01 0.000000e+00 0.000000e+00
1
Step 312000
Ar 8.026571e-01 0.000000e+00 0.000000e+00
1
Step 313000
Ar 9.384173e-01 0.000000e+00 0.000000e+00
1
Step 314000
Ar 9.808167e-01 0.000000e+00 0.000000e+00
1
Step 315000
Ar 1.054534e+00 0.000000e+00 0.000000e+00
1
Step 316000
Ar 8.465430e-01 0.000000e+00 0.000000e+00
1
Step 317000
Ar 8.466287e-01 0.000000e+00 0.000000e+00
1
Step 318000
Ar 1.086487e+00 0.000000e+00 0.000000e+00
1
Step 319000
Ar 8.164893e-01 0.000000e+00 0.000000e+00
1
Step 320000
Ar 8.245588e-01 0.000000e+00 0.000000e+00
1
Step 321000
Ar 1.029517e+00 0.000000e+00 0.000000e+00
1
Step 322000
Ar 9.576050e-01 0.000000e+00 0.000000e+00
1
Step 323000
Ar 1.071373e+00 0.000000e+00 0.000000e+00
1
Step 324000
Ar 9.789292e-01 0.000000e+00 0.000000e+00
1
Step 325000
Ar 8.467750e-01 0.000000e+00 0.000000e+00
1
Step 326000
Ar 8.923141e-01 0.000000e+00 0.000000e+00
1
Step 327000
Ar 8.116174e-01 0.000000e+00 0.000000e+00
1
Step 328000
Ar 1.119262e+00 0.000000e+00 0.000000e+00
1
Step 329000
Ar 1.039799e+00 0.000000e+00 0.000000e+00
1
Step 330000
Ar 7.138133e-01 0.000000e+00 0.000000e+00
1
Step 331000
Ar 9.729199e-01 0.000000e+00 0.000000e+00
1
Step 332000
Ar 8.378296e-01 0.000000e+00 0.000000e+00
1
Step 333000
Ar 8.478501e-01 0.000000e+00 0.000000e+00
1
Step 334000
Ar 8.405681e-01 0.000000e+00 0.000000e+00
1
Step 335000
Ar 8.498576e-01 0.000000e+00 0.000000e+00
1
Step 336000
Ar 1.018666e+00 0.000000e+00 0.000000e+00
1
Step 337000
Ar 8.676725e-01 0.000000e+00 0.000000e+00
1
Step 338000
Ar 9.184701e-01 0.000000e+00 0.000000e+00
1
Step 339000
Ar 7.764488e-01 0.000000e+00 0.000000e+00
1
Step 340000
Ar 1.052698e+00 0.000000e+00 0.000000e+00
1
Step 341000
Ar 1.126880e+00 0.000000e+00 0.000000e+00
1
Step 342000
Ar 9.818689e-01 0.000000e+00 0.000000e+00
1
Step 343000
Ar 9.387967e-01 0.000000e+00 0.000000e+00
1
Step 344000
Ar 1.125658e+00 0.000000e+00 0.000000e+00
1
Step 345000
Ar 1.077042e+00 0.000000e+00 0.000000e+00
1
Step 346000
Ar 9.750777e-01 0.000000e+00 0.000000e+00
1
Step 347000
Ar 1.091728e+00 0.000000e+00 0.000000e+00
1
Step 348000
Ar 1.087507e+00 0.000000e+00 0.000000e+00
1
Step 349000
Ar 8.698887e-01 0.000000e+00 0.000000e+00
1
Step 350000
Ar 9.274293e-01 0.000000e+00 0.000000e+00
1
Step 351000
Ar 1.002647e+00 0.000000e+00 0.000000e+00
1
Step 352000
Ar 1.035050e+00 0.000000e+00 0.000000e+00
1
Step 353000
Ar 1.033252e+00 0.000000e+00 0.000000e+00
1
Step 354000
Ar 1.031035e+00 0.000000e+00 0.000000e+00
1
Step 355000
Ar 8.521149e-01 0.000000e+00 0.000000e+00
1
Step 356000
Ar 8.600173e-01 0.000000e+00 0.000000e+00
1
Step 357000
Ar 1.186750e+00 0.000000e+00 0.000000e+00
1
Step 358000
Ar 9.834340e-01 0.000000e+00 0.000000e+00
1
Step 359000
Ar 1.083821e+00 0.000000e+00 0.000000e+00
1
Step 360000
Ar 1.050703e+00 0.000000e+00 0.000000e+00
1
Step 361000
Ar 8.877661e-01 0.000000e+00 0.000000e+00
1
Step 362000
Ar 1.024141e+00 0.000000e+00 0.000000e+00
1
Step 363000
Ar 8.465221e-01 0.000000e+00 0.000000e+00
1
Step 364000
Ar 8.447237e-01 0.000000e+00 0.000000e+00
1
Step 365000
Ar 8.450530e-01 0.000000e+00 0.000000e+00
1
Step 366000
Ar 1.121492e+00 0.000000e+00 0.000000e+00
1
Step 367000
Ar 1.005092e+00 0.000000e+00 0.000000e+00
1
Step 368000
Ar 1.028967e+00 0.000000e+00 0.000000e+00
1
Step 369000
Ar 1.027679e+00 0.000000e+00 0.000000e+00
1
Step 370000
Ar 9.832593e-01 0.000000e+00 0.000000e+00
1
Step 371000
Ar 8.384857e-01 0.000000e+00 0.000000e+00
1
Step 372000
Ar 1.162786e+00 0.000000e+00 0.000000e+00
1
Step 373000
Ar 9.437286e-01 0.000000e+00 0.000000e+00
1
Step 374000
Ar 1.209232e+00 0.000000e+00 0.000000e+00
1
Step 375000
Ar 9.902129e-01 0.000000e+00 0.000000e+00
1
Step 376000
Ar 1.109978e+00 0.000000e+00 0.000000e+00
1
Step 377000
Ar 1.159814e+00 0.000000e+00 0.000000e+00
1
Step 378000
Ar 8.006702e-01 0.000000e+00 0.000000e+00
1
Step 379000
Ar 1.144262e+00 0.000000e+00 0.000000e+00
1
Step 380000
Ar 8.479052e-01 0.000000e+00 0.000000e+00
1
Step 381000
Ar 8.431903e-01 0.000000e+00 0.000000e+00
1
Step 382000
Ar 8.450026e-01 0.000000e+00 0.000000e+00
1
Step 383000
Ar 1.070756e+00 0.000000e+00 0.000000e+00
1
Step 384000
Ar 9.932145e-01 0.000000e+00 0.000000e+00
1
Step 385000
Ar 9.754734e-01 0.000000e+00 0.000000e+00
1
Step 386000
Ar 9.855257e-01 0.000000e+00 0.000000e+00
1
Step 387000
Ar 1.125555e+00 0.000000e+00 0.000000e+00
1
Step 388000
Ar 6.955619e-01 0.000000e+00 0.000000e+00
1
Step 389000
Ar 9.869266e-01 0.000000e+00 0.000000e+00
1
Step 390000
Ar 9.821867e-01 0.000000e+00 0.000000e+00
1
Step 391000
Ar 9.553634e-01 0.000000e+00 0.000000e+00
1
Step 392000
Ar 9.848919e-01 0.000000e+00 0.000000e+00
1
Step 393000
Ar 9.764228e-01 0.000000e+00 0.000000e+00
1
Step 394000
Ar 8.335161e-01 0.000000e+00 0.000000e+00
1
Step 395000
Ar 8.359202e-01 0.000000e+00 0.000000e+00
1
Step 396000
Ar 1.087701e+00 0.000000e+00 0.000000e+00
1
Step 397000
Ar 9.162452e-01 0.000000e+00 0.000000e+00
1
Step 398000
Ar 1.092764e+00 0.000000e+00 0.000000e+00
1
Step 399000
Ar 1.126254e+00 0.000000e+00 0.000000e+00
1
Step 400000
Ar 1.123555e+00 0.000000e+00 0.000000e+00
1
Step 401000
Ar 1.131108e+00 0.000000e+00 0.000000e+00
1
Step 402000
Ar 1.126802e+00 0.000000e+00 0.000000e+00
1
Step 403000
Ar 1.127523e+00 0.000000e+00 0.000000e+00
1
Step 404000
Ar 7.057149e-01 0.000000e+00 0.000000e+00
1
Step 405000
Ar 1.078330e+00 0.000000e+00 0.000000e+00
1
Step 406000
Ar 1.020152e+00 0.000000e+00 0.000000e+00
1
Step 407000
Ar 1.041754e+00 0.000000e+00 0.000000e+00
1
Step 408000
Ar 1.073760e+00 0.000000e+00 0.000000e+00
1
Step 409000
Ar 6.962346e-01 0.000000e+00 0.000000e+00
1
Step 410000
Ar 1.132634e+00 0.000000e+00 0.000000e+00
1
Step 411000
Ar 8.347840e-01 0.000000e+00 0.000000e+00
1
Step 412000
Ar 8.339713e-01 0.000000e+00 0.000000e+00
1
Step 413000
Ar 8.360925e-01 0.000000e+00 0.000000e+00
1
Step 414000
Ar 8.335458e-01 0.000000e+00 0.000000e+00
1
Step 415000
Ar 8.339621e-01 0.000000e+00 0.000000e+00
1
Step 416000
Ar 8.303104e-01 0.000000e+00 0.000000e+00
1
Step 417000
Ar 8.338619e-01 0.000000e+00 0.000000e+00
1
Step 418000
Ar 7.296424e-01 0.000000e+00 0.000000e+00
1
Step 419000
Ar 9.244927e-01 0.000000e+00 0.000000e+00
1
Step 420000
Ar 1.061816e+00 0.000000e+00 0.000000e+00
1
Step 421000
Ar 1.068777e+00 0.000000e+00 0.000000e+00
1
Step 422000
Ar 8.226687e-01 0.000000e+00 0.000000e+00
1
Step 423000
Ar 9.602970e-01 0.000000e+00 0.000000e+00
1
Step 424000
Ar 7.674321e-01 0.000000e+00 0.000000e+00
1
Step 425000
Ar 8.418398e-01 0.000000e+00 0.000000e+00
1
Step 426000
Ar 1.259133e+00 0.000000e+00 0.000000e+00
1
Step 427000
Ar 1.091392e+00 0.000000e+00 0.000000e+00
1
Step 428000
Ar 6.793201e-01 0.000000e+00 0.000000e+00
1
Step 429000
Ar 9.720357e-01 0.000000e+00 0.000000e+00
1
Step 430000
Ar 4.866649e-01 0.000000e+00 0.000000e+00
1
Step 431000
Ar 8.787669e-01 0.000000e+00 0.000000e+00
1
Step 432000
Ar 9.827338e-01 0.000000e+00 0.000000e+00
1
Step 433000
Ar 1.027511e+00 0.000000e+00 0.000000e+00
1
Step 434000
Ar 8.488328e-01 0.000000e+00 0.000000e+00
1
Step 435000
Ar 1.165255e+00 0.000000e+00 0.000000e+00
1
Step 436000
Ar 8.243937e-01 0.000000e+00 0.000000e+00
1
Step 437000
Ar 8.221257e-01 0.000000e+00 0.000000e+00
1
Step 438000
Ar 8.234029e-01 0.000000e+00 0.000000e+00
1
Step 439000
Ar 7.517513e-01 0.000000e+00 0.000000e+00
1
Step 440000
Ar 1.024113e+00 0.000000e+00 0.000000e+00
1
Step 441000
Ar 9.416523e-01 0.000000e+00 0.000000e+00
1
Step 442000
Ar 9.517653e-01 0.000000e+00 0.000000e+00
1
Step 443000
Ar 1.002741e+00 0.000000e+00 0.000000e+00
1
Step 444000
Ar 1.084558e+00 0.000000e+00 0.000000e+00
1
Step 445000
Ar 9.224129e-01 0.000000e+00 0.000000e+00
1
Step 446000
Ar 1.131315e+00 0.000000e+00 0.000000e+00
1
Step 447000
Ar 9.370319e-01 0.000000e+00 0.000000e+00
1
Step 448000
Ar 8.313232e-01 0.000000e+00 0.000000e+00
1
Step 449000
Ar 9.709380e-01 0.000000e+00 0.000000e+00
1
Step 450000
Ar 9.480459e-01 0.000000e+00 0.000000e+00
1
Step 451000
Ar 1.166748e+00 0.000000e+00 0.000000e+00
1
Step 452000
Ar 9.123206e-01 0.000000e+00 0.000000e+00
1
Step 453000
Ar 1.085673e+00 0.000000e+00 0.000000e+00
1
Step 454000
Ar 9.069944e-01 0.000000e+00 0.000000e+00
1
Step 455000
Ar 1.161705e+00 0.000000e+00 0.000000e+00
1
Step 456000
Ar 8.126065e-01 0.000000e+00 0.000000e+00
1
Step 457000
Ar 6.718279e-01 0.000000e+00 0.000000e+00
1
Step 458000
Ar 1.211855e+00 0.000000e+00 0.000000e+00
1
Step 459000
Ar 1.064911e+00 0.000000e+00 0.000000e+00
1
Step 460000
Ar 9.692854e-01 0.000000e+00 0.000000e+00
1
Step 461000
Ar 9.341496e-01 0.000000e+00 0.000000e+00
1
Step 462000
Ar 9.291457e-01 0.000000e+00 0.000000e+00
1
Step 463000
Ar 9.273334e-01 0.000000e+00 0.000000e+00
1
Step 464000
Ar 9.328530e-01 0.000000e+00 0.000000e+00
1
Step 465000
Ar 7.369024e-01 0.000000e+00 0.000000e+00
1
Step 466000
Ar 9.064640e-01 0.000000e+00 0.000000e+00
1
Step 467000
Ar 4.187427e-01 0.000000e+00 0.000000e+00
1
Step 468000
Ar 9.049228e-01 0.000000e+00 0.000000e+00
1
Step 469000
Ar 1.248079e+00 0.000000e+00 0.000000e+00
1
Step 470000
Ar 6.379175e-01 0.000000e+00 0.000000e+00
1
Step 471000
Ar 8.782031e-01 0.000000e+00 0.000000e+00
1
Step 472000
Ar 9.306929e-01 0.000000e+00 0.000000e+00
1
Step 473000
Ar 8.458628e-01 0.000000e+00 0.000000e+00
1
Step 474000
Ar 1.052883e+00 0.000000e+00 0.000000e+00
1
Step 475000
Ar -1.177231e+00 0.000000e+00 0.000000e+00
1
Step 476000
Ar -9.795052e-01 0.000000e+00 0.000000e+00
1
Step 477000
Ar -9.719264e-01 0.000000e+00 0.000000e+00
1
Step 478000
Ar -9.676913e-01 0.000000e+00 0.000000e+00
1
Step 479000
Ar -9.729853e-01 0.000000e+00 0.000000e+00
1
Step 480000
Ar -1.009144e+00 0.000000e+00 0.000000e+00
1
Step 481000
Ar -1.007167e+00 0.000000e+00 0.000000e+00
1
Step 482000
Ar -1.020350e+00 0.000000e+00 0.000000e+00
1
Step 483000
Ar -1.014648e+00 0.000000e+00 0.000000e+00
1
Step 484000
Ar -1.010613e+00 0.000000e+00 0.000000e+00
1
Step 485000
Ar -1.020449e+00 0.000000e+00 0.000000e+00
1
Step 486000
Ar -1.013765e+00 0.000000e+00 0.000000e+00
1
Step 487000
Ar -1.010267e+00 0.000000e+00 0.000000e+00
1
Step 488000
Ar -1.022379e+00 0.000000e+00 0.000000e+00
1
Step 489000
Ar -1.027655e+00 0.000000e+00 0.000000e+00
1
Step 490000
Ar -1.019314e+00 0.000000e+00 0.000000e+00
1
Step 491000
Ar -1.017721e+00 0.000000e+00 0.000000e+00
1
Step 492000
Ar -1.033587e+00 0.000000e+00 0.000000e+00
1
Step 493000
Ar -1.042897e+00 0.000000e+00 0.000000e+00
1
Step 494000
Ar -1.037585e+00 0.000000e+00 0.000000e+00
1
Step 495000
Ar -1.036460e+00 0.000000e+00 0.000000e+00
1
Step 496000
Ar -1.041638e+00 0.000000e+00 0.000000e+00
1
Step 497000
Ar -1.038150e+00 0.000000e+00 0.000000e+00
1
Step 498000
Ar -1.035060e+00 0.000000e+00 0.000000e+00
1
Step 499000
Ar -1.042400e+00 0.000000e+00 0.000000e+00
1
Step 500000
Ar -1.064679e+00 0.000000e+00 0.000000e+00
1
Step 501000
Ar -1.044377e+00 0.000000e+00 0.000000e+00
1
Step 502000
Ar -1.047035e+00 0.000000e+00 0.000000e+00
1
Step 503000
Ar -1.046072e+00 0.000000e+00 0.000000e+00
1
Step 504000
Ar -1.046869e+00 0.000000e+00 0.000000e+00
1
Step 505000
Ar -1.043269e+00 0.000000e+00 0.000000e+00
1
Step 506000
Ar -9.414911e-01 0.000000e+00 0.000000e+00
1
Step 507000
Ar -9.317938e-01 0.000000e+00 0.000000e+00
1
Step 508000
Ar -9.468201e-01 0.000000e+00 0.000000e+00
1
Step 509000
Ar -9.465002e-01 0.000000e+00 0.000000e+00
1
Step 510000
Ar -9.501467e-01 0.000000e+00 0.000000e+00
1
Step 511000
Ar -9.450582e-01 0.000000e+00 0.000000e+00
1
Step 512000
Ar -9.494795e-01 0.000000e+00 0.000000e+00
1
Step 513000
Ar -9.528371e-01 0.000000e+00 0.000000e+00
1
Step 514000
Ar -9.523260e-01 0.000000e+00 0.000000e+00
1
Step 515000
Ar -9.465462e-01 0.000000e+00 0.000000e+00
1
Step 516000
Ar -9.455486e-01 0.000000e+00 0.000000e+00
1
Step 517000
Ar -9.423322e-01 0.000000e+00 0.000000e+00
1
Step 518000
Ar -9.460364e-01 0.000000e+00 0.000000e+00
1
Step 519000
Ar -9.191396e-01 0.000000e+00 0.000000e+00
1
Step 520000
Ar -9.354620e-01 0.000000e+00 0.000000e+00
1
Step 521000
Ar -9.400490e-01 0.000000e+00 0.000000e+00
1
Step 522000
Ar -9.383685e-01 0.000000e+00 0.000000e+00
1
Step 523000
Ar -9.381021e-01 0.000000e+00 0.000000e+00
1
Step 524000
Ar -9.400070e-01 0.000000e+00 0.000000e+00
1
Step 525000
Ar -8.951062e-01 0.000000e+00 0.000000e+00
1
Step 526000
Ar -1.062322e+00 0.000000e+00 0.000000e+00
1
Step 527000
Ar -1.064358e+00 0.000000e+00 0.000000e+00
1
Step 528000
Ar -1.063308e+00 0.000000e+00 0.000000e+00
1
Step 529000
Ar -1.064446e+00 0.000000e+00 0.000000e+00
1
Step 530000
Ar -1.065646e+00 0.000000e+00 0.000000e+00
1
Step 531000
Ar -1.001519e+00 0.000000e+00 0.000000e+00
1
Step 532000
Ar -9.903792e-01 0.000000e+00 0.000000e+00
1
Step 533000
Ar -1.026839e+00 0.000000e+00 0.000000e+00
1
Step 534000
Ar -1.025372e+00 0.000000e+00 0.000000e+00
1
Step 535000
Ar -1.072328e+00 0.000000e+00 0.000000e+00
1
Step 536000
Ar -9.369237e-01 0.000000e+00 0.000000e+00
1
Step 537000
Ar -9.266962e-01 0.000000e+00 0.000000e+00
1
Step 538000
Ar -9.224916e-01 0.000000e+00 0.000000e+00
1
Step 539000
Ar -9.241139e-01 0.000000e+00 0.000000e+00
1
Step 540000
Ar -9.242488e-01 0.000000e+00 0.000000e+00
1
Step 541000
Ar -9.236139e-01 0.000000e+00 0.000000e+00
1
Step 542000
Ar -9.197492e-01 0.000000e+00 0.000000e+00
1
Step 543000
Ar -9.189065e-01 0.000000e+00 0.000000e+00
1
Step 544000
Ar -9.220615e-01 0.000000e+00 0.000000e+00
1
Step 545000
Ar -9.258646e-01 0.000000e+00 0.000000e+00
1
Step 546000
Ar -9.240992e-01 0.000000e+00 0.000000e+00
1
Step 547000
Ar -9.236551e-01 0.000000e+00 0.000000e+00
1
Step 548000
Ar -9.201350e-01 0.000000e+00 0.000000e+00
1
Step 549000
Ar -9.245049e-01 0.000000e+00 0.000000e+00
1
Step 550000
Ar -9.225489e-01 0.000000e+00 0.000000e+00
1
Step 551000
Ar -9.212678e-01 0.000000e+00 0.000000e+00
1
Step 552000
Ar -9.227112e-01 0.000000e+00 0.000000e+00
1
Step 553000
Ar -9.057393e-01 0.000000e+00 0.000000e+00
1
Step 554000
Ar -1.073499e+00 0.000000e+00 0.000000e+00
1
Step 555000
Ar -1.033117e+00 0.000000e+00 0.000000e+00
1
Step 556000
Ar -8.900401e-01 0.000000e+00 0.000000e+00
1
Step 557000
Ar -9.136397e-01 0.000000e+00 0.000000e+00
1
Step 558000
Ar -9.148311e-01 0.000000e+00 0.000000e+00
1
Step 559000
Ar -9.137796e-01 0.000000e+00 0.000000e+00
1
Step 560000
Ar -1.097997e+00 0.000000e+00 0.000000e+00
1
Step 561000
Ar -9.091442e-01 0.000000e+00 0.000000e+00
1
Step 562000
Ar -9.102303e-01 0.000000e+00 0.000000e+00
1
Step 563000
Ar -9.094758e-01 0.000000e+00 0.000000e+00
1
Step 564000
Ar -1.002284e+00 0.000000e+00 0.000000e+00
1
Step 565000
Ar -9.653033e-01 0.000000e+00 0.000000e+00
1
Step 566000
Ar -9.702612e-01 0.000000e+00 0.000000e+00
1
Step 567000
Ar -9.586144e-01 0.000000e+00 0.000000e+00
1
Step 568000
Ar -9.648240e-01 0.000000e+00 0.000000e+00
1
Step 569000
Ar -9.623890e-01 0.000000e+00 0.000000e+00
1
Step 570000
Ar -9.593196e-01 0.000000e+00 0.000000e+00
1
Step 571000
Ar -1.024521e+00 0.000000e+00 0.000000e+00
1
Step 572000
Ar -9.131037e-01 0.000000e+00 0.000000e+00
1
Step 573000
Ar -9.642462e-01 0.000000e+00 0.000000e+00
1
Step 574000
Ar -9.564590e-01 0.000000e+00 0.000000e+00
1
Step 575000
Ar -9.615293e-01 0.000000e+00 0.000000e+00
1
Step 576000
Ar -9.597658e-01 0.000000e+00 0.000000e+00
1
Step 577000
Ar -9.488776e-01 0.000000e+00 0.000000e+00
1
Step 578000
Ar -9.634732e-01 0.000000e+00 0.000000e+00
1
Step 579000
Ar -1.085589e+00 0.000000e+00 0.000000e+00
1
Step 580000
Ar -1.082936e+00 0.000000e+00 0.000000e+00
1
Step 581000
Ar -1.073934e+00 0.000000e+00 0.000000e+00
1
Step 582000
Ar -9.547010e-01 0.000000e+00 0.000000e+00
1
Step 583000
Ar -9.540712e-01 0.000000e+00 0.000000e+00
1
Step 584000
Ar -9.629929e-01 0.000000e+00 0.000000e+00
1
Step 585000
Ar -1.070211e+00 0.000000e+00 0.000000e+00
1
Step 586000
Ar -9.581736e-01 0.000000e+00 0.000000e+00
1
Step 587000
Ar -1.064104e+00 0.000000e+00 0.000000e+00
1
Step 588000
Ar -8.976530e-01 0.000000e+00 0.000000e+00
1
Step 589000
Ar -8.985538e-01 0.000000e+00 0.000000e+00
1
Step 590000
Ar -8.977511e-01 0.000000e+00 0.000000e+00
1
Step 591000
Ar -9.025504e-01 0.000000e+00 0.000000e+00
1
Step 592000
Ar -8.945900e-01 0.000000e+00 0.000000e+00
1
Step 593000
Ar -9.017372e-01 0.000000e+00 0.000000e+00
1
Step 594000
Ar -1.042821e+00 0.000000e+00 0.000000e+00
1
Step 595000
Ar -1.013015e+00 0.000000e+00 0.000000e+00
1
Step 596000
Ar -9.902894e-01 0.000000e+00 0.000000e+00
1
Step 597000
Ar -1.038391e+00 0.000000e+00 0.000000e+00
1
Step 598000
Ar -1.044992e+00 0.000000e+00 0.000000e+00
1
Step 599000
Ar -8.396404e-01 0.000000e+00 0.000000e+00
1
Step 600000
Ar -1.069117e+00 0.000000e+00 0.000000e+00
1
Step 601000
Ar -1.084426e+00 0.000000e+00 0.000000e+00
1
Step 602000
Ar -1.081133e+00 0.000000e+00 0.000000e+00
1
Step 603000
Ar -1.086719e+00 0.000000e+00 0.000000e+00
1
Step 604000
Ar -1.083944e+00 0.000000e+00 0.000000e+00
1
Step 605000
Ar -1.102327e+00 0.000000e+00 0.000000e+00
1
Step 606000
Ar -1.178154e+00 0.000000e+00 0.000000e+00
1
Step 607000
Ar -9.016463e-01 0.000000e+00 0.000000e+00
1
Step 608000
Ar -8.967937e-01 0.000000e+00 0.000000e+00
1
Step 609000
Ar -8.962485e-01 0.000000e+00 0.000000e+00
1
Step 610000
Ar -8.986858e-01 0.000000e+00 0.000000e+00
1
Step 611000
Ar -8.985066e-01 0.000000e+00 0.000000e+00
1
Step 612000
Ar -9.010060e-01 0.000000e+00 0.000000e+00
1
Step 613000
Ar -8.883003e-01 0.000000e+00 0.000000e+00
1
Step 614000
Ar -8.902831e-01 0.000000e+00 0.000000e+00
1
Step 615000
Ar -8.862277e-01 0.000000e+00 0.000000e+00
1
Step 616000
Ar -8.864330e-01 0.000000e+00 0.000000e+00
1
Step 617000
Ar -8.884379e-01 0.000000e+00 0.000000e+00
1
Step 618000
Ar -8.881174e-01 0.000000e+00 0.000000e+00
1
Step 619000
Ar -1.014761e+00 0.000000e+00 0.000000e+00
1
Step 620000
Ar -1.120488e+00 0.000000e+00 0.000000e+00
1
Step 621000
Ar -9.376874e-01 0.000000e+00 0.000000e+00
1
Step 622000
Ar -1.069685e+00 0.000000e+00 0.000000e+00
1
Step 623000
Ar -1.082958e+00 0.000000e+00 0.000000e+00
1
Step 624000
Ar -1.050809e+00 0.000000e+00 0.000000e+00
1
Step 625000
Ar -1.040562e+00 0.000000e+00 0.000000e+00
1
Step 626000
Ar -1.045539e+00 0.000000e+00 0.000000e+00
1
Step 627000
Ar -1.044376e+00 0.000000e+00 0.000000e+00
1
Step 628000
Ar -1.041947e+00 0.000000e+00 0.000000e+00
1
Step 629000
Ar -1.046850e+00 0.000000e+00 0.000000e+00
1
Step 630000
Ar -1.048326e+00 0.000000e+00 0.000000e+00
1
Step 631000
Ar -1.053192e+00 0.000000e+00 0.000000e+00
1
Step 632000
Ar -9.749500e-01 0.000000e+00 0.000000e+00
1
Step 633000
Ar -9.690532e-01 0.000000e+00 0.000000e+00
1
Step 634000
Ar -9.734287e-01 0.000000e+00 0.000000e+00
1
Step 635000
Ar -9.713078e-01 0.000000e+00 0.000000e+00
1
Step 636000
Ar -9.397418e-01 0.000000e+00 0.000000e+00
1
Step 637000
Ar -8.751010e-01 0.000000e+00 0.000000e+00
1
Step 638000
Ar -9.510522e-01 0.000000e+00 0.000000e+00
1
Step 639000
Ar -1.013989e+00 0.000000e+00 0.000000e+00
1
Step 640000
Ar -1.085615e+00 0.000000e+00 0.000000e+00
1
Step 641000
Ar -1.099106e+00 0.000000e+00 0.000000e+00
1
Step 642000
Ar -1.055327e+00 0.000000e+00 0.000000e+00
1
Step 643000
Ar -1.027314e+00 0.000000e+00 0.000000e+00
1
Step 644000
Ar -8.798726e-01 0.000000e+00 0.000000e+00
1
Step 645000
Ar -8.784438e-01 0.000000e+00 0.000000e+00
1
Step 646000
Ar -8.796099e-01 0.000000e+00 0.000000e+00
1
Step 647000
Ar -8.736703e-01 0.000000e+00 0.000000e+00
1
Step 648000
Ar -8.796216e-01 0.000000e+00 0.000000e+00
1
Step 649000
Ar -8.797102e-01 0.000000e+00 0.000000e+00
1
Step 650000
Ar -1.078179e+00 0.000000e+00 0.000000e+00
1
Step 651000
Ar -1.077393e+00 0.000000e+00 0.000000e+00
1
Step 652000