1
Step 120000
Ar 1.003405e+00 0.000000e+00 0.000000e+00
1
Step 121000
Ar 1.038180e+00 0.000000e+00 0.000000e+00
1
Step 122000
Ar 1.093105e+00 0.000000e+00 0.000000e+00
1
Step 123000
Ar 1.162493e+00 0.000000e+00 0.000000e+00
1
Step 124000
Ar 1.241547e+00 0.000000e+00 0.000000e+00
1
Step 125000
Ar 9.145937e-01 0.000000e+00 0.000000e+00
1
Step 126000
Ar 9.033274e-01 0.000000e+00 0.000000e+00
1
Step 127000
Ar 8.622950e-01 0.000000e+00 0.000000e+00
1
Step 128000
Ar 8.940298e-01 0.000000e+00 0.000000e+00
1
Step 129000
Ar 8.722727e-01 0.000000e+00 0.000000e+00
1
Step 130000
Ar 1.069266e+00 0.000000e+00 0.000000e+00
1
Step 131000
Ar 1.068567e+00 0.000000e+00 0.000000e+00
1
Step 132000
Ar 7.049947e-01 0.000000e+00 0.000000e+00
1
Step 133000
Ar 1.195941e+00 0.000000e+00 0.000000e+00
1
Step 134000
Ar 1.197633e+00 0.000000e+00 0.000000e+00
1
Step 135000
Ar 7.909235e-01 0.000000e+00 0.000000e+00
1
Step 136000
Ar 9.799976e-01 0.000000e+00 0.000000e+00
1
Step 137000
Ar 9.437096e-01 0.000000e+00 0.000000e+00
1
Step 138000
Ar 9.040623e-01 0.000000e+00 0.000000e+00
1
Step 139000
Ar 8.873022e-01 0.000000e+00 0.000000e+00
1
Step 140000
Ar 8.669014e-01 0.000000e+00 0.000000e+00
1
Step 141000
Ar 9.535947e-01 0.000000e+00 0.000000e+00
1
Step 142000
Ar 1.122042e+00 0.000000e+00 0.000000e+00
1
Step 143000
Ar 1.125353e+00 0.000000e+00 0.000000e+00
1
Step 144000
Ar 1.163021e+00 0.000000e+00 0.000000e+00
1
Step 145000
Ar 1.155766e+00 0.000000e+00 0.000000e+00
1
Step 146000
Ar 1.094443e+00 0.000000e+00 0.000000e+00
1
Step 147000
Ar 1.010150e+00 0.000000e+00 0.000000e+00
1
Step 148000
Ar 1.002727e+00 0.000000e+00 0.000000e+00
1
Step 149000
Ar 9.989937e-01 0.000000e+00 0.000000e+00
1
Step 150000
Ar 1.010033e+00 0.000000e+00 0.000000e+00
1
Step 151000
Ar 8.442523e-01 0.000000e+00 0.000000e+00
1
Step 152000
Ar 8.260129e-01 0.000000e+00 0.000000e+00
1
Step 153000
Ar 8.375786e-01 0.000000e+00 0.000000e+00
1
Step 154000
Ar 8.334132e-01 0.000000e+00 0.000000e+00
1
Step 155000
Ar 6.413603e-01 0.000000e+00 0.000000e+00
1
Step 156000
Ar 6.496537e-01 0.000000e+00 0.000000e+00
1
Step 157000
Ar 4.953674e-01 0.000000e+00 0.000000e+00
1
Step 158000
Ar 5.366341e-01 0.000000e+00 0.000000e+00
1
Step 159000
Ar 8.094748e-01 0.000000e+00 0.000000e+00
1
Step 160000
Ar 6.777024e-01 0.000000e+00 0.000000e+00
1
Step 161000
Ar 6.352418e-01 0.000000e+00 0.000000e+00
1
Step 162000
Ar 6.763002e-01 0.000000e+00 0.000000e+00
1
Step 163000
Ar 7.102058e-01 0.000000e+00 0.000000e+00
1
Step 164000
Ar 6.756636e-01 0.000000e+00 0.000000e+00
1
Step 165000
Ar 6.817660e-01 0.000000e+00 0.000000e+00
1
Step 166000
Ar 5.971807e-01 0.000000e+00 0.000000e+00
1
Step 167000
Ar 6.012431e-01 0.000000e+00 0.000000e+00
1
Step 168000
Ar 5.337474e-01 0.000000e+00 0.000000e+00
1
Step 169000
Ar 9.102135e-01 0.000000e+00 0.000000e+00
1
Step 170000
Ar 8.893851e-01 0.000000e+00 0.000000e+00
1
Step 171000
Ar 9.253595e-01 0.000000e+00 0.000000e+00
1
Step 172000
Ar 9.546288e-01 0.000000e+00 0.000000e+00
1
Step 173000
Ar 8.942741e-01 0.000000e+00 0.000000e+00
1
Step 174000
Ar 5.631220e-01 0.000000e+00 0.000000e+00
1
Step 175000
Ar 5.432634e-01 0.000000e+00 0.000000e+00
1
Step 176000
Ar 6.001358e-01 0.000000e+00 0.000000e+00
1
Step 177000
Ar 6.041649e-01 0.000000e+00 0.000000e+00
1
Step 178000
Ar 5.971082e-01 0.000000e+00 0.000000e+00
1
Step 179000
Ar 6.301884e-01 0.000000e+00 0.000000e+00
1
Step 180000
Ar 3.404752e-01 0.000000e+00 0.000000e+00
1
Step 181000
Ar 1.295776e-01 0.000000e+00 0.000000e+00
1
Step 182000
Ar -9.903200e-02 0.000000e+00 0.000000e+00
1
Step 183000
Ar 6.673712e-02 0.000000e+00 0.000000e+00
1
Step 184000
Ar 3.514586e-02 0.000000e+00 0.000000e+00
1
Step 185000
Ar 3.569078e-02 0.000000e+00 0.000000e+00
1
Step 186000
Ar 7.026728e-02 0.000000e+00 0.000000e+00
1
Step 187000
Ar 2.847958e-02 0.000000e+00 0.000000e+00
1
Step 188000
Ar 3.615270e-02 0.000000e+00 0.000000e+00
1
Step 189000
Ar -1.113007e+00 0.000000e+00 0.000000e+00
1
Step 190000
Ar -9.199035e-01 0.000000e+00 0.000000e+00
1
Step 191000
Ar -1.163008e+00 0.000000e+00 0.000000e+00
1
Step 192000
Ar -1.119298e+00 0.000000e+00 0.000000e+00
1
Step 193000
Ar -1.226176e+00 0.000000e+00 0.000000e+00
1
Step 194000
Ar -1.219619e+00 0.000000e+00 0.000000e+00
1
Step 195000
Ar -1.153163e+00 0.000000e+00 0.000000e+00
1
Step 196000
Ar -1.175638e+00 0.000000e+00 0.000000e+00
1
Step 197000
Ar -6.513457e-01 0.000000e+00 0.000000e+00
1
Step 198000
Ar -5.965918e-01 0.000000e+00 0.000000e+00
1
Step 199000
Ar -5.504245e-01 0.000000e+00 0.000000e+00
1
Step 200000
Ar -3.721311e-01 0.000000e+00 0.000000e+00
1
Step 201000
Ar -2.965983e-01 0.000000e+00 0.000000e+00
1
Step 202000
Ar -3.783891e-01 0.000000e+00 0.000000e+00
1
Step 203000
Ar -3.428926e-01 0.000000e+00 0.000000e+00
1
Step 204000
Ar -4.231986e-01 0.000000e+00 0.000000e+00
1
Step 205000
Ar -4.567437e-01 0.000000e+00 0.000000e+00
1
Step 206000
Ar -8.893328e-01 0.000000e+00 0.000000e+00
1
Step 207000
Ar -1.036294e+00 0.000000e+00 0.000000e+00
1
Step 208000
Ar -8.990766e-01 0.000000e+00 0.000000e+00
1
Step 209000
Ar -1.313533e+00 0.000000e+00 0.000000e+00
1
Step 210000
Ar -1.115096e+00 0.000000e+00 0.000000e+00
1
Step 211000
Ar -1.115209e+00 0.000000e+00 0.000000e+00
1
Step 212000
Ar -1.074277e+00 0.000000e+00 0.000000e+00
1
Step 213000
Ar -1.081887e+00 0.000000e+00 0.000000e+00
1
Step 214000
Ar -1.115475e+00 0.000000e+00 0.000000e+00
1
Step 215000
Ar -1.105576e+00 0.000000e+00 0.000000e+00
1
Step 216000
Ar -1.105221e+00 0.000000e+00 0.000000e+00
1
Step 217000
Ar -1.099402e+00 0.000000e+00 0.000000e+00
1
Step 218000
Ar -9.454286e-01 0.000000e+00 0.000000e+00
1
Step 219000
Ar -9.430867e-01 0.000000e+00 0.000000e+00
1
Step 220000
Ar -8.829300e-01 0.000000e+00 0.000000e+00
1
Step 221000
Ar -7.938459e-01 0.000000e+00 0.000000e+00
1
Step 222000
Ar -7.851814e-01 0.000000e+00 0.000000e+00
1
Step 223000
Ar -6.946129e-01 0.000000e+00 0.000000e+00
1
Step 224000
Ar -6.805881e-01 0.000000e+00 0.000000e+00
1
Step 225000
Ar -7.223330e-01 0.000000e+00 0.000000e+00
1
Step 226000
Ar -7.315221e-01 0.000000e+00 0.000000e+00
1
Step 227000
Ar -5.814369e-01 0.000000e+00 0.000000e+00
1
Step 228000
Ar -5.985654e-01 0.000000e+00 0.000000e+00
1
Step 229000
Ar -6.594043e-01 0.000000e+00 0.000000e+00
1
Step 230000
Ar -5.566487e-01 0.000000e+00 0.000000e+00
1
Step 231000
Ar -5.653527e-01 0.000000e+00 0.000000e+00
1
Step 232000
Ar -1.352018e+00 0.000000e+00 0.000000e+00
1
Step 233000
Ar -1.177940e+00 0.000000e+00 0.000000e+00
1
Step 234000
Ar -1.180890e+00 0.000000e+00 0.000000e+00
1
Step 235000
Ar -1.183418e+00 0.000000e+00 0.000000e+00
1
Step 236000
Ar -1.227163e+00 0.000000e+00 0.000000e+00
1
Step 237000
Ar -1.144208e+00 0.000000e+00 0.000000e+00
1
Step 238000
Ar -1.349573e+00 0.000000e+00 0.000000e+00
1
Step 239000
Ar -1.236973e+00 0.000000e+00 0.000000e+00
1
Step 240000
Ar -1.355416e+00 0.000000e+00 0.000000e+00
1
Step 241000
Ar -1.145326e+00 0.000000e+00 0.000000e+00
1
Step 242000
Ar -1.211365e+00 0.000000e+00 0.000000e+00
1
Step 243000
Ar -1.091440e+00 0.000000e+00 0.000000e+00
1
Step 244000
Ar -1.120624e+00 0.000000e+00 0.000000e+00
1
Step 245000
Ar -1.126062e+00 0.000000e+00 0.000000e+00
1
Step 246000
Ar -1.106706e+00 0.000000e+00 0.000000e+00
1
Step 247000
Ar -1.103897e+00 0.000000e+00 0.000000e+00
1
Step 248000
Ar -1.098813e+00 0.000000e+00 0.000000e+00
1
Step 249000
Ar -1.319508e+00 0.000000e+00 0.000000e+00
1
Step 250000
Ar -1.314899e+00 0.000000e+00 0.000000e+00
1
Step 251000
Ar -1.324110e+00 0.000000e+00 0.000000e+00
1
Step 252000
Ar -1.260259e+00 0.000000e+00 0.000000e+00
1
Step 253000
Ar -1.183814e+00 0.000000e+00 0.000000e+00
1
Step 254000
Ar -1.160507e+00 0.000000e+00 0.000000e+00
1
Step 255000
Ar -1.186043e+00 0.000000e+00 0.000000e+00
1
Step 256000
Ar -1.177785e+00 0.000000e+00 0.000000e+00
1
Step 257000
Ar -1.491354e+00 0.000000e+00 0.000000e+00
1
Step 258000
Ar -1.312036e+00 0.000000e+00 0.000000e+00
1
Step 259000
Ar -1.291191e+00 0.000000e+00 0.000000e+00
1
Step 260000
Ar -1.446682e+00 0.000000e+00 0.000000e+00
1
Step 261000
Ar -1.310646e+00 0.000000e+00 0.000000e+00
1
Step 262000
Ar -1.353078e+00 0.000000e+00 0.000000e+00
1
Step 263000
Ar -1.401901e+00 0.000000e+00 0.000000e+00
1
Step 264000
Ar -1.367257e+00 0.000000e+00 0.000000e+00
1
Step 265000
Ar -1.375803e+00 0.000000e+00 0.000000e+00
1
Step 266000
Ar -1.257538e+00 0.000000e+00 0.000000e+00
1
Step 267000
Ar -1.225616e+00 0.000000e+00 0.000000e+00
1
Step 268000
Ar -1.226206e+00 0.000000e+00 0.000000e+00
1
Step 269000
Ar -1.123033e+00 0.000000e+00 0.000000e+00
1
Step 270000
Ar -1.066452e+00 0.000000e+00 0.000000e+00
1
Step 271000
Ar -1.065122e+00 0.000000e+00 0.000000e+00
1
Step 272000
Ar -6.805741e-01 0.000000e+00 0.000000e+00
1
Step 273000
Ar -7.679066e-01 0.000000e+00 0.000000e+00
1
Step 274000
Ar -7.237397e-01 0.000000e+00 0.000000e+00
1
Step 275000
Ar -7.695743e-01 0.000000e+00 0.000000e+00
1
Step 276000
Ar -8.671478e-01 0.000000e+00 0.000000e+00
1
Step 277000
Ar -8.858904e-01 0.000000e+00 0.000000e+00
1
Step 278000
Ar -8.850322e-01 0.000000e+00 0.000000e+00
1
Step 279000
Ar -8.742322e-01 0.000000e+00 0.000000e+00
1
Step 280000
Ar -8.697800e-01 0.000000e+00 0.000000e+00
1
Step 281000
Ar -8.762474e-01 0.000000e+00 0.000000e+00
1
Step 282000
Ar -8.809271e-01 0.000000e+00 0.000000e+00
1
Step 283000
Ar -8.621364e-01 0.000000e+00 0.000000e+00
1
Step 284000
Ar -8.923076e-01 0.000000e+00 0.000000e+00
1
Step 285000
Ar -8.308320e-01 0.000000e+00 0.000000e+00
1
Step 286000
Ar -7.549939e-01 0.000000e+00 0.000000e+00
1
Step 287000
Ar -1.006113e+00 0.000000e+00 0.000000e+00
1
Step 288000
Ar -1.030549e+00 0.000000e+00 0.000000e+00
1
Step 289000
Ar -1.028909e+00 0.000000e+00 0.000000e+00
1
Step 290000
Ar -9.546136e-01 0.000000e+00 0.000000e+00
1
Step 291000
Ar -9.371143e-01 0.000000e+00 0.000000e+00
1
Step 292000
Ar -1.004050e+00 0.000000e+00 0.000000e+00
1
Step 293000
Ar -1.005172e+00 0.000000e+00 0.000000e+00
1
Step 294000
Ar -1.016987e+00 0.000000e+00 0.000000e+00
1
Step 295000
Ar -9.342877e-01 0.000000e+00 0.000000e+00
1
Step 296000
Ar -9.128809e-01 0.000000e+00 0.000000e+00
1
Step 297000
Ar -9.098958e-01 0.000000e+00 0.000000e+00
1
Step 298000
Ar -1.008720e+00 0.000000e+00 0.000000e+00
1
Step 299000
Ar -8.649017e-01 0.000000e+00 0.000000e+00
1
Step 300000
Ar -9.813620e-01 0.000000e+00 0.000000e+00
1
Step 301000
Ar -9.842551e-01 0.000000e+00 0.000000e+00
1
Step 302000
Ar -7.782426e-01 0.000000e+00 0.000000e+00
1
Step 303000
Ar -7.666523e-01 0.000000e+00 0.000000e+00
1
Step 304000
Ar -1.000116e+00 0.000000e+00 0.000000e+00
1
Step 305000
Ar -1.043881e+00 0.000000e+00 0.000000e+00
1
Step 306000
Ar -6.788304e-01 0.000000e+00 0.000000e+00
1
Step 307000
Ar -6.119254e-01 0.000000e+00 0.000000e+00
1
Step 308000
Ar -6.312826e-01 0.000000e+00 0.000000e+00
1
Step 309000
Ar -6.347896e-01 0.000000e+00 0.000000e+00
1
Step 310000
Ar -5.486879e-01 0.000000e+00 0.000000e+00
1
Step 311000
Ar -5.492450e-01 0.000000e+00 0.000000e+00
1
Step 312000
Ar -5.313997e-01 0.000000e+00 0.000000e+00
1
Step 313000
Ar -5.571826e-01 0.000000e+00 0.000000e+00
1
Step 314000
Ar -8.239571e-01 0.000000e+00 0.000000e+00
1
Step 315000
Ar -8.324962e-01 0.000000e+00 0.000000e+00
1
Step 316000
Ar -7.496187e-01 0.000000e+00 0.000000e+00
1
Step 317000
Ar -5.511819e-01 0.000000e+00 0.000000e+00
1
Step 318000
Ar -4.984914e-01 0.000000e+00 0.000000e+00
1
Step 319000
Ar -4.974521e-01 0.000000e+00 0.000000e+00
1
Step 320000
Ar -4.927937e-01 0.000000e+00 0.000000e+00
1
Step 321000
Ar -5.615264e-01 0.000000e+00 0.000000e+00
1
Step 322000
Ar -5.383332e-01 0.000000e+00 0.000000e+00
1
Step 323000
Ar -5.523562e-01 0.000000e+00 0.000000e+00
1
Step 324000
Ar -4.453894e-01 0.000000e+00 0.000000e+00
1
Step 325000
Ar -4.499780e-01 0.000000e+00 0.000000e+00
1
Step 326000
Ar -5.764384e-01 0.000000e+00 0.000000e+00
1
Step 327000
Ar -6.103732e-01 0.000000e+00 0.000000e+00
1
Step 328000
Ar -5.763659e-01 0.000000e+00 0.000000e+00
1
Step 329000
Ar -5.984434e-01 0.000000e+00 0.000000e+00
1
Step 330000
Ar -3.449684e-01 0.000000e+00 0.000000e+00
1
Step 331000
Ar -8.724653e-02 0.000000e+00 0.000000e+00
1
Step 332000
Ar -1.489349e-01 0.000000e+00 0.000000e+00
1
Step 333000
Ar -9.403964e-02 0.000000e+00 0.000000e+00
1
Step 334000
Ar 7.484241e-02 0.000000e+00 0.000000e+00
1
Step 335000
Ar 2.067742e-01 0.000000e+00 0.000000e+00
1
Step 336000
Ar 1.581210e-01 0.000000e+00 0.000000e+00
1
Step 337000
Ar 1.440518e-01 0.000000e+00 0.000000e+00
1
Step 338000
Ar 1.604839e-01 0.000000e+00 0.000000e+00
1
Step 339000
Ar 6.104563e-01 0.000000e+00 0.000000e+00
1
Step 340000
Ar 6.110648e-01 0.000000e+00 0.000000e+00
1
Step 341000
Ar 7.006291e-01 0.000000e+00 0.000000e+00
1
Step 342000
Ar 6.993053e-01 0.000000e+00 0.000000e+00
1
Step 343000
Ar 6.824791e-01 0.000000e+00 0.000000e+00
1
Step 344000
Ar 6.974306e-01 0.000000e+00 0.000000e+00
1
Step 345000
Ar 8.182273e-01 0.000000e+00 0.000000e+00
1
Step 346000
Ar 7.254986e-01 0.000000e+00 0.000000e+00
1
Step 347000
Ar 6.689412e-01 0.000000e+00 0.000000e+00
1
Step 348000
Ar 5.405422e-01 0.000000e+00 0.000000e+00
1
Step 349000
Ar 7.204567e-01 0.000000e+00 0.000000e+00
1
Step 350000
Ar 7.297968e-01 0.000000e+00 0.000000e+00
1
Step 351000
Ar 9.158374e-01 0.000000e+00 0.000000e+00
1
Step 352000
Ar 9.555152e-01 0.000000e+00 0.000000e+00
1
Step 353000
Ar 9.586428e-01 0.000000e+00 0.000000e+00
1
Step 354000
Ar 8.462193e-01 0.000000e+00 0.000000e+00
1
Step 355000
Ar 9.289444e-01 0.000000e+00 0.000000e+00
1
Step 356000
Ar 8.715754e-01 0.000000e+00 0.000000e+00
1
Step 357000
Ar 8.511371e-01 0.000000e+00 0.000000e+00
1
Step 358000
Ar 8.988458e-01 0.000000e+00 0.000000e+00
1
Step 359000
Ar 6.181146e-01 0.000000e+00 0.000000e+00
1
Step 360000
Ar 6.892465e-01 0.000000e+00 0.000000e+00
1
Step 361000
Ar 6.456816e-01 0.000000e+00 0.000000e+00
1
Step 362000
Ar 6.199832e-01 0.000000e+00 0.000000e+00
1
Step 363000
Ar 5.641072e-01 0.000000e+00 0.000000e+00
1
Step 364000
Ar 5.802031e-01 0.000000e+00 0.000000e+00
1
Step 365000
Ar 4.410277e-01 0.000000e+00 0.000000e+00
1
Step 366000
Ar 4.670336e-01 0.000000e+00 0.000000e+00
1
Step 367000
Ar 3.359663e-01 0.000000e+00 0.000000e+00
1
Step 368000
Ar 3.442499e-01 0.000000e+00 0.000000e+00
1
Step 369000
Ar 3.607937e-01 0.000000e+00 0.000000e+00
1
Step 370000
Ar 3.476378e-01 0.000000e+00 0.000000e+00
1
Step 371000
Ar 5.233827e-01 0.000000e+00 0.000000e+00
1
Step 372000
Ar 6.012617e-01 0.000000e+00 0.000000e+00
1
Step 373000
Ar 4.627778e-01 0.000000e+00 0.000000e+00
1
Step 374000
Ar 5.391834e-01 0.000000e+00 0.000000e+00
1
Step 375000
Ar 2.067945e-01 0.000000e+00 0.000000e+00
1
Step 376000
Ar 2.740813e-01 0.000000e+00 0.000000e+00
1
Step 377000
Ar 3.442299e-01 0.000000e+00 0.000000e+00
1
Step 378000
Ar 3.928110e-01 0.000000e+00 0.000000e+00
1
Step 379000
Ar 3.575435e-01 0.000000e+00 0.000000e+00
1
Step 380000
Ar 2.619624e-01 0.000000e+00 0.000000e+00
1
Step 381000
Ar 2.582754e-01 0.000000e+00 0.000000e+00
1
Step 382000
Ar 3.586839e-01 0.000000e+00 0.000000e+00
1
Step 383000
Ar 2.479814e-01 0.000000e+00 0.000000e+00
1
Step 384000
Ar 2.421373e-01 0.000000e+00 0.000000e+00
1
Step 385000
Ar 2.430532e-01 0.000000e+00 0.000000e+00
1
Step 386000
Ar 2.058653e-01 0.000000e+00 0.000000e+00
1
Step 387000
Ar 3.153393e-01 0.000000e+00 0.000000e+00
1
Step 388000
Ar 3.174757e-01 0.000000e+00 0.000000e+00
1
Step 389000
Ar 2.776440e-01 0.000000e+00 0.000000e+00
1
Step 390000
Ar 3.169562e-01 0.000000e+00 0.000000e+00
1
Step 391000
Ar 2.738501e-01 0.000000e+00 0.000000e+00
1
Step 392000
Ar 3.387883e-01 0.000000e+00 0.000000e+00
1
Step 393000
Ar 3.936417e-01 0.000000e+00 0.000000e+00
1
Step 394000
Ar 3.990928e-01 0.000000e+00 0.000000e+00
1
Step 395000
Ar 3.942203e-01 0.000000e+00 0.000000e+00
1
Step 396000
Ar 3.768703e-01 0.000000e+00 0.000000e+00
1
Step 397000
Ar 3.962545e-01 0.000000e+00 0.000000e+00
1
Step 398000
Ar 3.987933e-01 0.000000e+00 0.000000e+00
1
Step 399000
Ar 3.972544e-01 0.000000e+00 0.000000e+00
1
Step 400000
Ar 3.781080e-01 0.000000e+00 0.000000e+00
1
Step 401000
Ar 3.361211e-01 0.000000e+00 0.000000e+00
1
Step 402000
Ar 3.301379e-01 0.000000e+00 0.000000e+00
1
Step 403000
Ar 3.894551e-01 0.000000e+00 0.000000e+00
1
Step 404000
Ar 3.642688e-01 0.000000e+00 0.000000e+00
1
Step 405000
Ar 2.693855e-01 0.000000e+00 0.000000e+00
1
Step 406000
Ar 2.685245e-01 0.000000e+00 0.000000e+00
1
Step 407000
Ar 2.362591e-01 0.000000e+00 0.000000e+00
1
Step 408000
Ar -4.653914e-01 0.000000e+00 0.000000e+00
1
Step 409000
Ar -3.766172e-01 0.000000e+00 0.000000e+00
1
Step 410000
Ar -5.028748e-01 0.000000e+00 0.000000e+00
1
Step 411000
Ar -2.453076e-01 0.000000e+00 0.000000e+00
1
Step 412000
Ar -2.419146e-01 0.000000e+00 0.000000e+00
1
Step 413000
Ar -2.601906e-01 0.000000e+00 0.000000e+00
1
Step 414000
Ar -2.447999e-01 0.000000e+00 0.000000e+00
1
Step 415000
Ar -2.423433e-01 0.000000e+00 0.000000e+00
1
Step 416000
Ar -3.595049e-01 0.000000e+00 0.000000e+00
1
Step 417000
Ar -3.784539e-01 0.000000e+00 0.000000e+00
1
Step 418000
Ar -1.359064e-01 0.000000e+00 0.000000e+00
1
Step 419000
Ar -1.315246e-01 0.000000e+00 0.000000e+00
1
Step 420000
Ar -1.274026e-01 0.000000e+00 0.000000e+00
1
Step 421000
Ar -1.308618e-01 0.000000e+00 0.000000e+00
1
Step 422000
Ar -1.750829e-01 0.000000e+00 0.000000e+00
1
Step 423000
Ar -1.326174e-01 0.000000e+00 0.000000e+00
1
Step 424000
Ar -5.298148e-03 0.000000e+00 0.000000e+00
1
Step 425000
Ar 4.269953e-02 0.000000e+00 0.000000e+00
1
Step 426000
Ar -3.123525e-02 0.000000e+00 0.000000e+00
1
Step 427000
Ar -5.445524e-02 0.000000e+00 0.000000e+00
1
Step 428000
Ar -4.466701e-02 0.000000e+00 0.000000e+00
1
Step 429000
Ar -4.557001e-02 0.000000e+00 0.000000e+00
1
Step 430000
Ar -4.258869e-02 0.000000e+00 0.000000e+00
1
Step 431000
Ar 3.130655e-03 0.000000e+00 0.000000e+00
1
Step 432000
Ar -1.525661e-01 0.000000e+00 0.000000e+00
1
Step 433000
Ar -1.481621e-01 0.000000e+00 0.000000e+00
1
Step 434000
Ar -4.037301e-02 0.000000e+00 0.000000e+00
1
Step 435000
Ar -4.535499e-02 0.000000e+00 0.000000e+00
1
Step 436000
Ar -1.139787e-01 0.000000e+00 0.000000e+00
1
Step 437000
Ar -1.354303e-01 0.000000e+00 0.000000e+00
1
Step 438000
Ar 4.729994e-01 0.000000e+00 0.000000e+00
1
Step 439000
Ar 4.895762e-01 0.000000e+00 0.000000e+00
1
Step 440000
Ar 5.254783e-01 0.000000e+00 0.000000e+00
1
Step 441000
Ar 4.916034e-01 0.000000e+00 0.000000e+00
1
Step 442000
Ar 4.570731e-01 0.000000e+00 0.000000e+00
1
Step 443000
Ar 4.637078e-01 0.000000e+00 0.000000e+00
1
Step 444000
Ar 4.526376e-01 0.000000e+00 0.000000e+00
1
Step 445000
Ar 4.939157e-01 0.000000e+00 0.000000e+00
1
Step 446000
Ar 4.950857e-01 0.000000e+00 0.000000e+00
1
Step 447000
Ar 5.009977e-01 0.000000e+00 0.000000e+00
1
Step 448000
Ar 4.586350e-01 0.000000e+00 0.000000e+00
1
Step 449000
Ar 3.463026e-01 0.000000e+00 0.000000e+00
1
Step 450000
Ar 3.820872e-01 0.000000e+00 0.000000e+00
1
Step 451000
Ar 2.925323e-02 0.000000e+00 0.000000e+00
1
Step 452000
Ar -2.217970e-02 0.000000e+00 0.000000e+00
1
Step 453000
Ar 1.194226e-02 0.000000e+00 0.000000e+00
1
Step 454000
Ar -5.772303e-02 0.000000e+00 0.000000e+00
1
Step 455000
Ar -4.937926e-02 0.000000e+00 0.000000e+00
1
Step 456000
Ar -6.510125e-02 0.000000e+00 0.000000e+00
1
Step 457000
Ar -3.557048e-02 0.000000e+00 0.000000e+00
1
Step 458000
Ar -2.462891e-02 0.000000e+00 0.000000e+00
1
Step 459000
Ar -2.994409e-02 0.000000e+00 0.000000e+00
1
Step 460000
Ar -6.094639e-01 0.000000e+00 0.000000e+00
1
Step 461000
Ar -7.703436e-01 0.000000e+00 0.000000e+00
1
Step 462000
Ar -8.328425e-01 0.000000e+00 0.000000e+00
1
Step 463000
Ar -8.117355e-01 0.000000e+00 0.000000e+00
1
Step 464000
Ar -1.154092e+00 0.000000e+00 0.000000e+00
1
Step 465000
Ar -1.157292e+00 0.000000e+00 0.000000e+00
1
Step 466000
Ar -1.157029e+00 0.000000e+00 0.000000e+00
1
Step 467000
Ar -1.158143e+00 0.000000e+00 0.000000e+00
1
Step 468000
Ar -1.159885e+00 0.000000e+00 0.000000e+00
1
Step 469000
Ar -1.158095e+00 0.000000e+00 0.000000e+00
1
Step 470000
Ar -1.157939e+00 0.000000e+00 0.000000e+00
1
Step 471000
Ar -1.162912e+00 0.000000e+00 0.000000e+00
1
Step 472000
Ar -1.290593e+00 0.000000e+00 0.000000e+00
1
Step 473000
Ar -1.085399e+00 0.000000e+00 0.000000e+00
1
Step 474000
Ar -1.116730e+00 0.000000e+00 0.000000e+00
1
Step 475000
Ar -1.116804e+00 0.000000e+00 0.000000e+00
1
Step 476000
Ar -1.148892e+00 0.000000e+00 0.000000e+00
1
Step 477000
Ar -1.258463e+00 0.000000e+00 0.000000e+00
1
Step 478000
Ar -1.284257e+00 0.000000e+00 0.000000e+00
1
Step 479000
Ar -1.185059e+00 0.000000e+00 0.000000e+00
1
Step 480000
Ar -1.184659e+00 0.000000e+00 0.000000e+00
1
Step 481000
Ar -1.182776e+00 0.000000e+00 0.000000e+00
1
Step 482000
Ar -1.182436e+00 0.000000e+00 0.000000e+00
1
Step 483000
Ar -1.189606e+00 0.000000e+00 0.000000e+00
1
Step 484000
Ar -1.187329e+00 0.000000e+00 0.000000e+00
1
Step 485000
Ar -1.283709e+00 0.000000e+00 0.000000e+00
1
Step 486000
Ar -1.363605e+00 0.000000e+00 0.000000e+00
1
Step 487000
Ar -1.423954e+00 0.000000e+00 0.000000e+00
1
Step 488000
Ar -1.424849e+00 0.000000e+00 0.000000e+00
1
Step 489000
Ar -1.424783e+00 0.000000e+00 0.000000e+00
1
Step 490000
Ar -1.404855e+00 0.000000e+00 0.000000e+00
1
Step 491000
Ar -1.447162e+00 0.000000e+00 0.000000e+00
1
Step 492000
Ar -1.452061e+00 0.000000e+00 0.000000e+00
1
Step 493000
Ar -1.489995e+00 0.000000e+00 0.000000e+00
1
Step 494000
Ar -1.481673e+00 0.000000e+00 0.000000e+00
1
Step 495000
Ar -1.459596e+00 0.000000e+00 0.000000e+00
1
Step 496000
Ar -1.241375e+00 0.000000e+00 0.000000e+00
1
Step 497000
Ar -1.236577e+00 0.000000e+00 0.000000e+00
1
Step 498000
Ar -1.250605e+00 0.000000e+00 0.000000e+00
1
Step 499000
Ar -1.277671e+00 0.000000e+00 0.000000e+00
1
Step 500000
Ar -1.275654e+00 0.000000e+00 0.000000e+00
1
Step 501000
Ar -1.312923e+00 0.000000e+00 0.000000e+00
1
Step 502000
Ar -1.153506e+00 0.000000e+00 0.000000e+00
1
Step 503000
Ar -1.083620e+00 0.000000e+00 0.000000e+00
1
Step 504000
Ar -6.987957e-01 0.000000e+00 0.000000e+00
1
Step 505000
Ar -8.649797e-01 0.000000e+00 0.000000e+00
1
Step 506000
Ar -6.736810e-01 0.000000e+00 0.000000e+00
1
Step 507000
Ar -6.403420e-01 0.000000e+00 0.000000e+00
1
Step 508000
Ar -5.773444e-01 0.000000e+00 0.000000e+00
1
Step 509000
Ar -5.812966e-01 0.000000e+00 0.000000e+00
1
Step 510000
Ar -5.749854e-01 0.000000e+00 0.000000e+00
1
Step 511000
Ar -5.769701e-01 0.000000e+00 0.000000e+00
1
Step 512000
Ar -6.188782e-01 0.000000e+00 0.000000e+00
1
Step 513000
Ar -5.410924e-01 0.000000e+00 0.000000e+00
1
Step 514000
Ar -8.738920e-02 0.000000e+00 0.000000e+00
1
Step 515000
Ar -8.038334e-02 0.000000e+00 0.000000e+00
1
Step 516000
Ar -1.054146e-01 0.000000e+00 0.000000e+00
1
Step 517000
Ar 7.410438e-03 0.000000e+00 0.000000e+00
1
Step 518000
Ar 1.358689e-02 0.000000e+00 0.000000e+00
1
Step 519000
Ar -4.646013e-03 0.000000e+00 0.000000e+00
1
Step 520000
Ar 1.338830e-02 0.000000e+00 0.000000e+00
1
Step 521000
Ar 4.682248e-03 0.000000e+00 0.000000e+00
1
Step 522000
Ar 2.731446e-02 0.000000e+00 0.000000e+00
1
Step 523000
Ar -2.524451e-03 0.000000e+00 0.000000e+00
1
Step 524000
Ar 1.807835e-01 0.000000e+00 0.000000e+00
1
Step 525000
Ar 1.433276e-01 0.000000e+00 0.000000e+00
1
Step 526000
Ar 1.746871e-01 0.000000e+00 0.000000e+00
1
Step 527000
Ar 1.071225e-01 0.000000e+00 0.000000e+00
1
Step 528000
Ar 2.240851e-01 0.000000e+00 0.000000e+00
1
Step 529000
Ar 1.325552e-01 0.000000e+00 0.000000e+00
1
Step 530000
Ar 1.026668e-01 0.000000e+00 0.000000e+00
1
Step 531000
Ar 1.031580e-01 0.000000e+00 0.000000e+00
1
Step 532000
Ar 2.236644e-01 0.000000e+00 0.000000e+00
1
Step 533000
Ar 3.134869e-01 0.000000e+00 0.000000e+00
1
Step 534000
Ar 3.059415e-01 0.000000e+00 0.000000e+00
1
Step 535000
Ar 3.036891e-01 0.000000e+00 0.000000e+00
1
Step 536000
Ar 6.126497e-02 0.000000e+00 0.000000e+00
1
Step 537000
Ar -6.326806e-02 0.000000e+00 0.000000e+00
1
Step 538000
Ar -2.194814e-02 0.000000e+00 0.000000e+00
1
Step 539000
Ar -1.650640e-02 0.000000e+00 0.000000e+00
1
Step 540000
Ar -4.529791e-03 0.000000e+00 0.000000e+00
1
Step 541000
Ar 1.017700e-02 0.000000e+00 0.000000e+00
1
Step 542000
Ar -6.223355e-02 0.000000e+00 0.000000e+00
1
Step 543000
Ar -3.699724e-01 0.000000e+00 0.000000e+00
1
Step 544000
Ar -2.412103e-01 0.000000e+00 0.000000e+00
1
Step 545000
Ar -2.390692e-01 0.000000e+00 0.000000e+00
1
Step 546000
Ar -3.257976e-01 0.000000e+00 0.000000e+00
1
Step 547000
Ar -3.161226e-01 0.000000e+00 0.000000e+00
1
Step 548000
Ar -2.879950e-01 0.000000e+00 0.000000e+00
1
Step 549000
Ar -3.184004e-01 0.000000e+00 0.000000e+00
1
Step 550000
Ar -3.530834e-01 0.000000e+00 0.000000e+00
1
Step 551000
Ar -1.821433e-01 0.000000e+00 0.000000e+00
1
Step 552000
Ar -2.225447e-01 0.000000e+00 0.000000e+00
1
Step 553000
Ar -1.450966e-01 0.000000e+00 0.000000e+00
1
Step 554000
Ar -1.389494e-01 0.000000e+00 0.000000e+00
1
Step 555000
Ar -1.466793e-01 0.000000e+00 0.000000e+00
1
Step 556000
Ar -1.414461e-01 0.000000e+00 0.000000e+00
1
Step 557000
Ar -4.943016e-01 0.000000e+00 0.000000e+00
1
Step 558000
Ar -4.994634e-01 0.000000e+00 0.000000e+00
1
Step 559000
Ar -5.005142e-01 0.000000e+00 0.000000e+00
1
Step 560000
Ar -4.949330e-01 0.000000e+00 0.000000e+00
1
Step 561000
Ar -7.456913e-01 0.000000e+00 0.000000e+00
1
Step 562000
Ar -7.729816e-01 0.000000e+00 0.000000e+00
1
Step 563000
Ar -7.465201e-01 0.000000e+00 0.000000e+00
1
Step 564000
Ar -7.509003e-01 0.000000e+00 0.000000e+00
1
Step 565000
Ar -4.661574e-01 0.000000e+00 0.000000e+00
1
Step 566000
Ar -4.658635e-01 0.000000e+00 0.000000e+00
1
Step 567000
Ar -4.677006e-01 0.000000e+00 0.000000e+00
1
Step 568000
Ar -4.634004e-01 0.000000e+00 0.000000e+00
1
Step 569000
Ar -5.053448e-01 0.000000e+00 0.000000e+00
1
Step 570000
Ar -4.847258e-01 0.000000e+00 0.000000e+00
1
Step 571000
Ar -5.862298e-01 0.000000e+00 0.000000e+00
1
Step 572000
Ar -6.620228e-01 0.000000e+00 0.000000e+00
1
Step 573000
Ar -6.822673e-01 0.000000e+00 0.000000e+00
1
Step 574000
Ar -7.014322e-01 0.000000e+00 0.000000e+00
1
Step 575000
Ar -8.843103e-01 0.000000e+00 0.000000e+00
1
Step 576000
Ar -9.112034e-01 0.000000e+00 0.000000e+00
1
Step 577000
Ar -9.656319e-01 0.000000e+00 0.000000e+00
1
Step 578000
Ar -9.097031e-01 0.000000e+00 0.000000e+00
1
Step 579000
Ar -9.998264e-01 0.000000e+00 0.000000e+00
1
Step 580000
Ar -1.003543e+00 0.000000e+00 0.000000e+00
1
Step 581000
Ar -9.719442e-01 0.000000e+00 0.000000e+00
1
Step 582000
Ar -1.072202e+00 0.000000e+00 0.000000e+00
1
Step 583000
Ar -1.071084e+00 0.000000e+00 0.000000e+00
1
Step 584000
Ar -1.128722e+00 0.000000e+00 0.000000e+00
1
Step 585000
Ar -1.105504e+00 0.000000e+00 0.000000e+00
1
Step 586000
Ar -1.280789e+00 0.000000e+00 0.000000e+00
1
Step 587000
Ar -1.299572e+00 0.000000e+00 0.000000e+00
1
Step 588000
Ar -8.296718e-01 0.000000e+00 0.000000e+00
1
Step 589000
Ar -8.239658e-01 0.000000e+00 0.000000e+00
1
Step 590000
Ar -8.280971e-01 0.000000e+00 0.000000e+00
1
Step 591000
Ar -8.901630e-01 0.000000e+00 0.000000e+00
1
Step 592000
Ar -8.767208e-01 0.000000e+00 0.000000e+00
1
Step 593000
Ar -8.597821e-01 0.000000e+00 0.000000e+00
1
Step 594000
Ar -9.224475e-01 0.000000e+00 0.000000e+00
1
Step 595000
Ar -9.143942e-01 0.000000e+00 0.000000e+00
1
Step 596000
Ar -8.281922e-01 0.000000e+00 0.000000e+00
1
Step 597000
Ar -9.662945e-01 0.000000e+00 0.000000e+00
1
Step 598000
Ar -9.636507e-01 0.000000e+00 0.000000e+00
1
Step 599000
Ar -8.485110e-01 0.000000e+00 0.000000e+00
1
Step 600000
Ar -8.536731e-01 0.000000e+00 0.000000e+00
1
Step 601000
Ar -1.006121e+00 0.000000e+00 0.000000e+00
1
Step 602000
Ar -7.197396e-01 0.000000e+00 0.000000e+00
1
Step 603000
Ar -8.678826e-01 0.000000e+00 0.000000e+00
1
Step 604000
Ar -8.924006e-01 0.000000e+00 0.000000e+00
1
Step 605000
Ar -8.948635e-01 0.000000e+00 0.000000e+00
1
Step 606000
Ar -9.625802e-01 0.000000e+00 0.000000e+00
1
Step 607000
Ar -1.002180e+00 0.000000e+00 0.000000e+00
1
Step 608000
Ar -1.006687e+00 0.000000e+00 0.000000e+00
1
Step 609000
Ar -9.092453e-01 0.000000e+00 0.000000e+00
1
Step 610000
Ar -9.863736e-01 0.000000e+00 0.000000e+00
1
Step 611000
Ar -9.219656e-01 0.000000e+00 0.000000e+00
1
Step 612000
Ar -9.722632e-01 0.000000e+00 0.000000e+00
1
Step 613000
Ar -1.161458e+00 0.000000e+00 0.000000e+00
1
Step 614000
Ar -1.206096e+00 0.000000e+00 0.000000e+00
1
Step 615000
Ar -1.103382e+00 0.000000e+00 0.000000e+00
1
Step 616000
Ar -1.044635e+00 0.000000e+00 0.000000e+00
1
Step 617000
Ar -1.057138e+00 0.000000e+00 0.000000e+00
1
Step 618000
Ar -1.039429e+00 0.000000e+00 0.000000e+00
1
Step 619000
Ar -1.051063e+00 0.000000e+00 0.000000e+00
1
Step 620000
Ar -1.161345e+00 0.000000e+00 0.000000e+00
1
Step 621000
Ar -1.117412e+00 0.000000e+00 0.000000e+00
1
Step 622000
Ar -1.081451e+00 0.000000e+00 0.000000e+00
1
Step 623000
Ar -7.722220e-01 0.000000e+00 0.000000e+00
1
Step 624000
Ar -7.785459e-01 0.000000e+00 0.000000e+00
1
Step 625000
Ar -7.665728e-01 0.000000e+00 0.000000e+00
1
Step 626000
Ar -7.887836e-01 0.000000e+00 0.000000e+00
1
Step 627000
Ar -6.995855e-01 0.000000e+00 0.000000e+00
1
Step 628000
Ar -7.393970e-01 0.000000e+00 0.000000e+00
1
Step 629000
Ar -7.527120e-01 0.000000e+00 0.000000e+00
1
Step 630000
Ar -7.520704e-01 0.000000e+00 0.000000e+00
1
Step 631000
Ar -8.758657e-01 0.000000e+00 0.000000e+00
1
Step 632000
Ar -7.207037e-01 0.000000e+00 0.000000e+00
1
Step 633000
Ar -6.726079e-01 0.000000e+00 0.000000e+00
1
Step 634000
Ar -6.595909e-01 0.000000e+00 0.000000e+00
1
Step 635000
Ar -8.920670e-01 0.000000e+00 0.000000e+00
1
Step 636000
Ar -8.917143e-01 0.000000e+00 0.000000e+00
1
Step 637000
Ar -2.201884e-01 0.000000e+00 0.000000e+00
1
Step 638000
Ar -2.181034e-01 0.000000e+00 0.000000e+00
1
Step 639000
Ar -2.220722e-01 0.000000e+00 0.000000e+00
1
Step 640000
Ar -1.973467e-01 0.000000e+00 0.000000e+00
1
Step 641000
Ar -1.966552e-01 0.000000e+00 0.000000e+00
1
Step 642000
Ar -1.062641e-01 0.000000e+00 0.000000e+00
1
Step 643000
Ar -2.210943e-01 0.000000e+00 0.000000e+00
1
Step 644000
Ar -3.212639e-01 0.000000e+00 0.000000e+00
1
Step 645000
Ar -3.021691e-01 0.000000e+00 0.000000e+00
1
Step 646000
Ar -3.196774e-01 0.000000e+00 0.000000e+00
1
Step 647000
Ar -4.580710e-01 0.000000e+00 0.000000e+00
1
Step 648000
Ar -4.130584e-01 0.000000e+00 0.000000e+00
1
Step 649000