1
Step 120000
Ar 1.002060e+00 0.000000e+00 0.000000e+00
1
Step 121000
Ar 1.013750e+00 0.000000e+00 0.000000e+00
1
Step 122000
Ar 9.855114e-01 0.000000e+00 0.000000e+00
1
Step 123000
Ar 9.890039e-01 0.000000e+00 0.000000e+00
1
Step 124000
Ar 9.902843e-01 0.000000e+00 0.000000e+00
1
Step 125000
Ar 1.022547e+00 0.000000e+00 0.000000e+00
1
Step 126000
Ar 1.003889e+00 0.000000e+00 0.000000e+00
1
Step 127000
Ar 9.957014e-01 0.000000e+00 0.000000e+00
1
Step 128000
Ar 1.003792e+00 0.000000e+00 0.000000e+00
1
Step 129000
Ar 9.899865e-01 0.000000e+00 0.000000e+00
1
Step 130000
Ar 9.972949e-01 0.000000e+00 0.000000e+00
1
Step 131000
Ar 9.875912e-01 0.000000e+00 0.000000e+00
1
Step 132000
Ar 9.824347e-01 0.000000e+00 0.000000e+00
1
Step 133000
Ar 9.836117e-01 0.000000e+00 0.000000e+00
1
Step 134000
Ar 9.798687e-01 0.000000e+00 0.000000e+00
1
Step 135000
Ar 9.780593e-01 0.000000e+00 0.000000e+00
1
Step 136000
Ar 1.007590e+00 0.000000e+00 0.000000e+00
1
Step 137000
Ar 1.013356e+00 0.000000e+00 0.000000e+00
1
Step 138000
Ar 1.008870e+00 0.000000e+00 0.000000e+00
1
Step 139000
Ar 1.011490e+00 0.000000e+00 0.000000e+00
1
Step 140000
Ar 1.010209e+00 0.000000e+00 0.000000e+00
1
Step 141000
Ar 1.035836e+00 0.000000e+00 0.000000e+00
1
Step 142000
Ar 1.032053e+00 0.000000e+00 0.000000e+00
1
Step 143000
Ar 1.037111e+00 0.000000e+00 0.000000e+00
1
Step 144000
Ar 1.032058e+00 0.000000e+00 0.000000e+00
1
Step 145000
Ar 1.032025e+00 0.000000e+00 0.000000e+00
1
Step 146000
Ar 9.549886e-01 0.000000e+00 0.000000e+00
1
Step 147000
Ar 9.644787e-01 0.000000e+00 0.000000e+00
1
Step 148000
Ar 9.532482e-01 0.000000e+00 0.000000e+00
1
Step 149000
Ar 9.646899e-01 0.000000e+00 0.000000e+00
1
Step 150000
Ar 9.688526e-01 0.000000e+00 0.000000e+00
1
Step 151000
Ar 9.578047e-01 0.000000e+00 0.000000e+00
1
Step 152000
Ar 9.574067e-01 0.000000e+00 0.000000e+00
1
Step 153000
Ar 9.544947e-01 0.000000e+00 0.000000e+00
1
Step 154000
Ar 9.560558e-01 0.000000e+00 0.000000e+00
1
Step 155000
Ar 9.544689e-01 0.000000e+00 0.000000e+00
1
Step 156000
Ar 9.390456e-01 0.000000e+00 0.000000e+00
1
Step 157000
Ar 9.416258e-01 0.000000e+00 0.000000e+00
1
Step 158000
Ar 9.360627e-01 0.000000e+00 0.000000e+00
1
Step 159000
Ar 9.404850e-01 0.000000e+00 0.000000e+00
1
Step 160000
Ar 9.429819e-01 0.000000e+00 0.000000e+00
1
Step 161000
Ar 1.045770e+00 0.000000e+00 0.000000e+00
1
Step 162000
Ar 1.040902e+00 0.000000e+00 0.000000e+00
1
Step 163000
Ar 1.042511e+00 0.000000e+00 0.000000e+00
1
Step 164000
Ar 1.044108e+00 0.000000e+00 0.000000e+00
1
Step 165000
Ar 1.046790e+00 0.000000e+00 0.000000e+00
1
Step 166000
Ar 1.000619e+00 0.000000e+00 0.000000e+00
1
Step 167000
Ar 1.059277e+00 0.000000e+00 0.000000e+00
1
Step 168000
Ar 1.057496e+00 0.000000e+00 0.000000e+00
1
Step 169000
Ar 1.054842e+00 0.000000e+00 0.000000e+00
1
Step 170000
Ar 1.061220e+00 0.000000e+00 0.000000e+00
1
Step 171000
Ar 9.873621e-01 0.000000e+00 0.000000e+00
1
Step 172000
Ar 9.828004e-01 0.000000e+00 0.000000e+00
1
Step 173000
Ar 9.904280e-01 0.000000e+00 0.000000e+00
1
Step 174000
Ar 9.888543e-01 0.000000e+00 0.000000e+00
1
Step 175000
Ar 9.865271e-01 0.000000e+00 0.000000e+00
1
Step 176000
Ar 1.003527e+00 0.000000e+00 0.000000e+00
1
Step 177000
Ar 1.036461e+00 0.000000e+00 0.000000e+00
1
Step 178000
Ar 1.014999e+00 0.000000e+00 0.000000e+00
1
Step 179000
Ar 1.010360e+00 0.000000e+00 0.000000e+00
1
Step 180000
Ar 1.002723e+00 0.000000e+00 0.000000e+00
1
Step 181000
Ar 9.763685e-01 0.000000e+00 0.000000e+00
1
Step 182000
Ar 9.625344e-01 0.000000e+00 0.000000e+00
1
Step 183000
Ar 9.635837e-01 0.000000e+00 0.000000e+00
1
Step 184000
Ar 9.866213e-01 0.000000e+00 0.000000e+00
1
Step 185000
Ar 9.651856e-01 0.000000e+00 0.000000e+00
1
Step 186000
Ar 9.356048e-01 0.000000e+00 0.000000e+00
1
Step 187000
Ar 9.263120e-01 0.000000e+00 0.000000e+00
1
Step 188000
Ar 9.299934e-01 0.000000e+00 0.000000e+00
1
Step 189000
Ar 9.340107e-01 0.000000e+00 0.000000e+00
1
Step 190000
Ar 9.317757e-01 0.000000e+00 0.000000e+00
1
Step 191000
Ar 1.019491e+00 0.000000e+00 0.000000e+00
1
Step 192000
Ar 1.017208e+00 0.000000e+00 0.000000e+00
1
Step 193000
Ar 1.015884e+00 0.000000e+00 0.000000e+00
1
Step 194000
Ar 1.013915e+00 0.000000e+00 0.000000e+00
1
Step 195000
Ar 1.040636e+00 0.000000e+00 0.000000e+00
1
Step 196000
Ar 9.911701e-01 0.000000e+00 0.000000e+00
1
Step 197000
Ar 9.901341e-01 0.000000e+00 0.000000e+00
1
Step 198000
Ar 9.937894e-01 0.000000e+00 0.000000e+00
1
Step 199000
Ar 9.882766e-01 0.000000e+00 0.000000e+00
1
Step 200000
Ar 1.014392e+00 0.000000e+00 0.000000e+00
1
Step 201000
Ar 1.026737e+00 0.000000e+00 0.000000e+00
1
Step 202000
Ar 1.027130e+00 0.000000e+00 0.000000e+00
1
Step 203000
Ar 1.025028e+00 0.000000e+00 0.000000e+00
1
Step 204000
Ar 1.026368e+00 0.000000e+00 0.000000e+00
1
Step 205000
Ar 1.032483e+00 0.000000e+00 0.000000e+00
1
Step 206000
Ar 9.569497e-01 0.000000e+00 0.000000e+00
1
Step 207000
Ar 9.564986e-01 0.000000e+00 0.000000e+00
1
Step 208000
Ar 9.481300e-01 0.000000e+00 0.000000e+00
1
Step 209000
Ar 9.911671e-01 0.000000e+00 0.000000e+00
1
Step 210000
Ar 9.884674e-01 0.000000e+00 0.000000e+00
1
Step 211000
Ar 9.556573e-01 0.000000e+00 0.000000e+00
1
Step 212000
Ar 7.595111e-01 0.000000e+00 0.000000e+00
1
Step 213000
Ar 1.071580e+00 0.000000e+00 0.000000e+00
1
Step 214000
Ar 1.072534e+00 0.000000e+00 0.000000e+00
1
Step 215000
Ar 7.946023e-01 0.000000e+00 0.000000e+00
1
Step 216000
Ar 1.070069e+00 0.000000e+00 0.000000e+00
1
Step 217000
Ar 1.052458e+00 0.000000e+00 0.000000e+00
1
Step 218000
Ar 1.051809e+00 0.000000e+00 0.000000e+00
1
Step 219000
Ar 1.071946e+00 0.000000e+00 0.000000e+00
1
Step 220000
Ar 1.069001e+00 0.000000e+00 0.000000e+00
1
Step 221000
Ar 1.077868e+00 0.000000e+00 0.000000e+00
1
Step 222000
Ar 1.077982e+00 0.000000e+00 0.000000e+00
1
Step 223000
Ar 1.074652e+00 0.000000e+00 0.000000e+00
1
Step 224000
Ar 1.078605e+00 0.000000e+00 0.000000e+00
1
Step 225000
Ar 1.078832e+00 0.000000e+00 0.000000e+00
1
Step 226000
Ar 1.019032e+00 0.000000e+00 0.000000e+00
1
Step 227000
Ar 9.490871e-01 0.000000e+00 0.000000e+00
1
Step 228000
Ar 9.572317e-01 0.000000e+00 0.000000e+00
1
Step 229000
Ar 1.019142e+00 0.000000e+00 0.000000e+00
1
Step 230000
Ar 1.001504e+00 0.000000e+00 0.000000e+00
1
Step 231000
Ar 9.690601e-01 0.000000e+00 0.000000e+00
1
Step 232000
Ar 9.525271e-01 0.000000e+00 0.000000e+00
1
Step 233000
Ar 9.575480e-01 0.000000e+00 0.000000e+00
1
Step 234000
Ar 9.483160e-01 0.000000e+00 0.000000e+00
1
Step 235000
Ar 9.510726e-01 0.000000e+00 0.000000e+00
1
Step 236000
Ar 9.603270e-01 0.000000e+00 0.000000e+00
1
Step 237000
Ar 9.757933e-01 0.000000e+00 0.000000e+00
1
Step 238000
Ar 9.741670e-01 0.000000e+00 0.000000e+00
1
Step 239000
Ar 9.800474e-01 0.000000e+00 0.000000e+00
1
Step 240000
Ar 9.799141e-01 0.000000e+00 0.000000e+00
1
Step 241000
Ar 1.022012e+00 0.000000e+00 0.000000e+00
1
Step 242000
Ar 1.018872e+00 0.000000e+00 0.000000e+00
1
Step 243000
Ar 1.019967e+00 0.000000e+00 0.000000e+00
1
Step 244000
Ar 1.024846e+00 0.000000e+00 0.000000e+00
1
Step 245000
Ar 1.024874e+00 0.000000e+00 0.000000e+00
1
Step 246000
Ar 1.015542e+00 0.000000e+00 0.000000e+00
1
Step 247000
Ar 1.012799e+00 0.000000e+00 0.000000e+00
1
Step 248000
Ar 1.015407e+00 0.000000e+00 0.000000e+00
1
Step 249000
Ar 1.012622e+00 0.000000e+00 0.000000e+00
1
Step 250000
Ar 1.015978e+00 0.000000e+00 0.000000e+00
1
Step 251000
Ar 9.397031e-01 0.000000e+00 0.000000e+00
1
Step 252000
Ar 9.203993e-01 0.000000e+00 0.000000e+00
1
Step 253000
Ar 9.220767e-01 0.000000e+00 0.000000e+00
1
Step 254000
Ar 9.214817e-01 0.000000e+00 0.000000e+00
1
Step 255000
Ar 9.038048e-01 0.000000e+00 0.000000e+00
1
Step 256000
Ar 9.435024e-01 0.000000e+00 0.000000e+00
1
Step 257000
Ar 9.211664e-01 0.000000e+00 0.000000e+00
1
Step 258000
Ar 9.203626e-01 0.000000e+00 0.000000e+00
1
Step 259000
Ar 9.233673e-01 0.000000e+00 0.000000e+00
1
Step 260000
Ar 9.244745e-01 0.000000e+00 0.000000e+00
1
Step 261000
Ar 1.054027e+00 0.000000e+00 0.000000e+00
1
Step 262000
Ar 1.037672e+00 0.000000e+00 0.000000e+00
1
Step 263000
Ar 9.233606e-01 0.000000e+00 0.000000e+00
1
Step 264000
Ar 1.038608e+00 0.000000e+00 0.000000e+00
1
Step 265000
Ar 9.172496e-01 0.000000e+00 0.000000e+00
1
Step 266000
Ar 1.097253e+00 0.000000e+00 0.000000e+00
1
Step 267000
Ar 1.088200e+00 0.000000e+00 0.000000e+00
1
Step 268000
Ar 9.118273e-01 0.000000e+00 0.000000e+00
1
Step 269000
Ar 9.154735e-01 0.000000e+00 0.000000e+00
1
Step 270000
Ar 1.057649e+00 0.000000e+00 0.000000e+00
1
Step 271000
Ar 1.052510e+00 0.000000e+00 0.000000e+00
1
Step 272000
Ar 9.921669e-01 0.000000e+00 0.000000e+00
1
Step 273000
Ar 9.366302e-01 0.000000e+00 0.000000e+00
1
Step 274000
Ar 9.263616e-01 0.000000e+00 0.000000e+00
1
Step 275000
Ar 1.086352e+00 0.000000e+00 0.000000e+00
1
Step 276000
Ar 9.381097e-01 0.000000e+00 0.000000e+00
1
Step 277000
Ar 9.450654e-01 0.000000e+00 0.000000e+00
1
Step 278000
Ar 9.706580e-01 0.000000e+00 0.000000e+00
1
Step 279000
Ar 9.413354e-01 0.000000e+00 0.000000e+00
1
Step 280000
Ar 9.447627e-01 0.000000e+00 0.000000e+00
1
Step 281000
Ar 1.032695e+00 0.000000e+00 0.000000e+00
1
Step 282000
Ar 1.094740e+00 0.000000e+00 0.000000e+00
1
Step 283000
Ar 1.095407e+00 0.000000e+00 0.000000e+00
1
Step 284000
Ar 1.094582e+00 0.000000e+00 0.000000e+00
1
Step 285000
Ar 1.049205e+00 0.000000e+00 0.000000e+00
1
Step 286000
Ar 8.898410e-01 0.000000e+00 0.000000e+00
1
Step 287000
Ar 1.038594e+00 0.000000e+00 0.000000e+00
1
Step 288000
Ar 1.040695e+00 0.000000e+00 0.000000e+00
1
Step 289000
Ar 1.077563e+00 0.000000e+00 0.000000e+00
1
Step 290000
Ar 9.623070e-01 0.000000e+00 0.000000e+00
1
Step 291000
Ar 1.076025e+00 0.000000e+00 0.000000e+00
1
Step 292000
Ar 1.005706e+00 0.000000e+00 0.000000e+00
1
Step 293000
Ar 8.557753e-01 0.000000e+00 0.000000e+00
1
Step 294000
Ar 8.790387e-01 0.000000e+00 0.000000e+00
1
Step 295000
Ar 9.776128e-01 0.000000e+00 0.000000e+00
1
Step 296000
Ar 9.996954e-01 0.000000e+00 0.000000e+00
1
Step 297000
Ar 8.935885e-01 0.000000e+00 0.000000e+00
1
Step 298000
Ar 8.927897e-01 0.000000e+00 0.000000e+00
1
Step 299000
Ar 8.913840e-01 0.000000e+00 0.000000e+00
1
Step 300000
Ar 1.111677e+00 0.000000e+00 0.000000e+00
1
Step 301000
Ar 8.918224e-01 0.000000e+00 0.000000e+00
1
Step 302000
Ar 8.937927e-01 0.000000e+00 0.000000e+00
1
Step 303000
Ar 8.952431e-01 0.000000e+00 0.000000e+00
1
Step 304000
Ar 1.070161e+00 0.000000e+00 0.000000e+00
1
Step 305000
Ar 9.228145e-01 0.000000e+00 0.000000e+00
1
Step 306000
Ar 1.084331e+00 0.000000e+00 0.000000e+00
1
Step 307000
Ar 1.042277e+00 0.000000e+00 0.000000e+00
1
Step 308000
Ar 1.055584e+00 0.000000e+00 0.000000e+00
1
Step 309000
Ar 1.094770e+00 0.000000e+00 0.000000e+00
1
Step 310000
Ar 1.094425e+00 0.000000e+00 0.000000e+00
1
Step 311000
Ar 9.877059e-01 0.000000e+00 0.000000e+00
1
Step 312000
Ar 1.101823e+00 0.000000e+00 0.000000e+00
1
Step 313000
Ar 9.371421e-01 0.000000e+00 0.000000e+00
1
Step 314000
Ar 9.348086e-01 0.000000e+00 0.000000e+00
1
Step 315000
Ar 8.913479e-01 0.000000e+00 0.000000e+00
1
Step 316000
Ar 9.980079e-01 0.000000e+00 0.000000e+00
1
Step 317000
Ar 9.370372e-01 0.000000e+00 0.000000e+00
1
Step 318000
Ar 1.010276e+00 0.000000e+00 0.000000e+00
1
Step 319000
Ar 9.790651e-01 0.000000e+00 0.000000e+00
1
Step 320000
Ar 9.275686e-01 0.000000e+00 0.000000e+00
1
Step 321000
Ar 9.552936e-01 0.000000e+00 0.000000e+00
1
Step 322000
Ar 9.279669e-01 0.000000e+00 0.000000e+00
1
Step 323000
Ar 8.713086e-01 0.000000e+00 0.000000e+00
1
Step 324000
Ar 9.526716e-01 0.000000e+00 0.000000e+00
1
Step 325000
Ar 1.042898e+00 0.000000e+00 0.000000e+00
1
Step 326000
Ar 9.999595e-01 0.000000e+00 0.000000e+00
1
Step 327000
Ar 8.222143e-01 0.000000e+00 0.000000e+00
1
Step 328000
Ar 8.608336e-01 0.000000e+00 0.000000e+00
1
Step 329000
Ar 1.157856e+00 0.000000e+00 0.000000e+00
1
Step 330000
Ar 8.390553e-01 0.000000e+00 0.000000e+00
1
Step 331000
Ar 9.244418e-01 0.000000e+00 0.000000e+00
1
Step 332000
Ar 9.570879e-01 0.000000e+00 0.000000e+00
1
Step 333000
Ar 9.151780e-01 0.000000e+00 0.000000e+00
1
Step 334000
Ar 9.791686e-01 0.000000e+00 0.000000e+00
1
Step 335000
Ar 8.888171e-01 0.000000e+00 0.000000e+00
1
Step 336000
Ar 1.156837e+00 0.000000e+00 0.000000e+00
1
Step 337000
Ar 1.070561e+00 0.000000e+00 0.000000e+00
1
Step 338000
Ar 1.071443e+00 0.000000e+00 0.000000e+00
1
Step 339000
Ar 7.442099e-01 0.000000e+00 0.000000e+00
1
Step 340000
Ar 9.521313e-01 0.000000e+00 0.000000e+00
1
Step 341000
Ar 9.632416e-01 0.000000e+00 0.000000e+00
1
Step 342000
Ar 1.070011e+00 0.000000e+00 0.000000e+00
1
Step 343000
Ar 1.071396e+00 0.000000e+00 0.000000e+00
1
Step 344000
Ar 1.074261e+00 0.000000e+00 0.000000e+00
1
Step 345000
Ar 1.072064e+00 0.000000e+00 0.000000e+00
1
Step 346000
Ar 8.717850e-01 0.000000e+00 0.000000e+00
1
Step 347000
Ar 8.780622e-01 0.000000e+00 0.000000e+00
1
Step 348000
Ar 8.786289e-01 0.000000e+00 0.000000e+00
1
Step 349000
Ar 8.825055e-01 0.000000e+00 0.000000e+00
1
Step 350000
Ar 8.789378e-01 0.000000e+00 0.000000e+00
1
Step 351000
Ar 8.703402e-01 0.000000e+00 0.000000e+00
1
Step 352000
Ar 8.717018e-01 0.000000e+00 0.000000e+00
1
Step 353000
Ar 8.694964e-01 0.000000e+00 0.000000e+00
1
Step 354000
Ar 8.696144e-01 0.000000e+00 0.000000e+00
1
Step 355000
Ar 8.666855e-01 0.000000e+00 0.000000e+00
1
Step 356000
Ar 1.012484e+00 0.000000e+00 0.000000e+00
1
Step 357000
Ar 1.213270e+00 0.000000e+00 0.000000e+00
1
Step 358000
Ar 9.870665e-01 0.000000e+00 0.000000e+00
1
Step 359000
Ar 9.236601e-01 0.000000e+00 0.000000e+00
1
Step 360000
Ar 8.799460e-01 0.000000e+00 0.000000e+00
1
Step 361000
Ar 7.686089e-01 0.000000e+00 0.000000e+00
1
Step 362000
Ar 1.105610e+00 0.000000e+00 0.000000e+00
1
Step 363000
Ar 1.028068e+00 0.000000e+00 0.000000e+00
1
Step 364000
Ar 7.676273e-01 0.000000e+00 0.000000e+00
1
Step 365000
Ar 9.683712e-01 0.000000e+00 0.000000e+00
1
Step 366000
Ar 9.326106e-01 0.000000e+00 0.000000e+00
1
Step 367000
Ar 1.063534e+00 0.000000e+00 0.000000e+00
1
Step 368000
Ar 7.342073e-01 0.000000e+00 0.000000e+00
1
Step 369000
Ar 7.907167e-01 0.000000e+00 0.000000e+00
1
Step 370000
Ar 9.536535e-01 0.000000e+00 0.000000e+00
1
Step 371000
Ar 8.690499e-01 0.000000e+00 0.000000e+00
1
Step 372000
Ar 1.205981e+00 0.000000e+00 0.000000e+00
1
Step 373000
Ar 1.209617e+00 0.000000e+00 0.000000e+00
1
Step 374000
Ar 8.550206e-01 0.000000e+00 0.000000e+00
1
Step 375000
Ar 1.052685e+00 0.000000e+00 0.000000e+00
1
Step 376000
Ar 9.888993e-01 0.000000e+00 0.000000e+00
1
Step 377000
Ar 9.994178e-01 0.000000e+00 0.000000e+00
1
Step 378000
Ar 9.955296e-01 0.000000e+00 0.000000e+00
1
Step 379000
Ar 1.031460e+00 0.000000e+00 0.000000e+00
1
Step 380000
Ar 1.108616e+00 0.000000e+00 0.000000e+00
1
Step 381000
Ar 8.516078e-01 0.000000e+00 0.000000e+00
1
Step 382000
Ar 1.022758e+00 0.000000e+00 0.000000e+00
1
Step 383000
Ar 7.582942e-01 0.000000e+00 0.000000e+00
1
Step 384000
Ar 8.456577e-01 0.000000e+00 0.000000e+00
1
Step 385000
Ar 1.221189e+00 0.000000e+00 0.000000e+00
1
Step 386000
Ar 9.606573e-01 0.000000e+00 0.000000e+00
1
Step 387000
Ar 9.648578e-01 0.000000e+00 0.000000e+00
1
Step 388000
Ar 1.155688e+00 0.000000e+00 0.000000e+00
1
Step 389000
Ar 9.805532e-01 0.000000e+00 0.000000e+00
1
Step 390000
Ar 1.033696e+00 0.000000e+00 0.000000e+00
1
Step 391000
Ar 9.944091e-01 0.000000e+00 0.000000e+00
1
Step 392000
Ar 8.729390e-01 0.000000e+00 0.000000e+00
1
Step 393000
Ar 8.583795e-01 0.000000e+00 0.000000e+00
1
Step 394000
Ar 8.614719e-01 0.000000e+00 0.000000e+00
1
Step 395000
Ar 8.622836e-01 0.000000e+00 0.000000e+00
1
Step 396000
Ar 1.052854e+00 0.000000e+00 0.000000e+00
1
Step 397000
Ar 1.061193e+00 0.000000e+00 0.000000e+00
1
Step 398000
Ar 1.001249e+00 0.000000e+00 0.000000e+00
1
Step 399000
Ar 9.023353e-01 0.000000e+00 0.000000e+00
1
Step 400000
Ar 8.499119e-01 0.000000e+00 0.000000e+00
1
Step 401000
Ar 1.235820e+00 0.000000e+00 0.000000e+00
1
Step 402000
Ar 9.035278e-01 0.000000e+00 0.000000e+00
1
Step 403000
Ar 1.066732e+00 0.000000e+00 0.000000e+00
1
Step 404000
Ar 1.060417e+00 0.000000e+00 0.000000e+00
1
Step 405000
Ar 1.061774e+00 0.000000e+00 0.000000e+00
1
Step 406000
Ar 8.745824e-01 0.000000e+00 0.000000e+00
1
Step 407000
Ar 1.023661e+00 0.000000e+00 0.000000e+00
1
Step 408000
Ar 8.732139e-01 0.000000e+00 0.000000e+00
1
Step 409000
Ar 1.081680e+00 0.000000e+00 0.000000e+00
1
Step 410000
Ar 1.080239e+00 0.000000e+00 0.000000e+00
1
Step 411000
Ar 1.098690e+00 0.000000e+00 0.000000e+00
1
Step 412000
Ar 9.317474e-01 0.000000e+00 0.000000e+00
1
Step 413000
Ar 1.067401e+00 0.000000e+00 0.000000e+00
1
Step 414000
Ar 1.021187e+00 0.000000e+00 0.000000e+00
1
Step 415000
Ar 1.016829e+00 0.000000e+00 0.000000e+00
1
Step 416000
Ar 1.164388e+00 0.000000e+00 0.000000e+00
1
Step 417000
Ar 7.967012e-01 0.000000e+00 0.000000e+00
1
Step 418000
Ar 1.085248e+00 0.000000e+00 0.000000e+00
1
Step 419000
Ar 1.058366e+00 0.000000e+00 0.000000e+00
1
Step 420000
Ar 1.067424e+00 0.000000e+00 0.000000e+00
1
Step 421000
Ar 8.421180e-01 0.000000e+00 0.000000e+00
1
Step 422000
Ar 1.014374e+00 0.000000e+00 0.000000e+00
1
Step 423000
Ar 9.894457e-01 0.000000e+00 0.000000e+00
1
Step 424000
Ar 1.099804e+00 0.000000e+00 0.000000e+00
1
Step 425000
Ar 1.097976e+00 0.000000e+00 0.000000e+00
1
Step 426000
Ar 1.086015e+00 0.000000e+00 0.000000e+00
1
Step 427000
Ar 1.083773e+00 0.000000e+00 0.000000e+00
1
Step 428000
Ar 1.087023e+00 0.000000e+00 0.000000e+00
1
Step 429000
Ar 1.014538e+00 0.000000e+00 0.000000e+00
1
Step 430000
Ar 1.019732e+00 0.000000e+00 0.000000e+00
1
Step 431000
Ar 1.155456e+00 0.000000e+00 0.000000e+00
1
Step 432000
Ar 6.033846e-01 0.000000e+00 0.000000e+00
1
Step 433000
Ar 8.338063e-01 0.000000e+00 0.000000e+00
1
Step 434000
Ar 8.422652e-01 0.000000e+00 0.000000e+00
1
Step 435000
Ar 1.026957e+00 0.000000e+00 0.000000e+00
1
Step 436000
Ar 1.171409e+00 0.000000e+00 0.000000e+00
1
Step 437000
Ar 6.993107e-01 0.000000e+00 0.000000e+00
1
Step 438000
Ar 7.986560e-01 0.000000e+00 0.000000e+00
1
Step 439000
Ar 1.059709e+00 0.000000e+00 0.000000e+00
1
Step 440000
Ar 1.249320e+00 0.000000e+00 0.000000e+00
1
Step 441000
Ar 1.088823e+00 0.000000e+00 0.000000e+00
1
Step 442000
Ar 1.087191e+00 0.000000e+00 0.000000e+00
1
Step 443000
Ar 1.167791e+00 0.000000e+00 0.000000e+00
1
Step 444000
Ar 1.121351e+00 0.000000e+00 0.000000e+00
1
Step 445000
Ar 1.033548e+00 0.000000e+00 0.000000e+00
1
Step 446000
Ar 1.042340e+00 0.000000e+00 0.000000e+00
1
Step 447000
Ar 1.051932e+00 0.000000e+00 0.000000e+00
1
Step 448000
Ar 7.642007e-01 0.000000e+00 0.000000e+00
1
Step 449000
Ar 1.084975e+00 0.000000e+00 0.000000e+00
1
Step 450000
Ar 1.085966e+00 0.000000e+00 0.000000e+00
1
Step 451000
Ar 1.118160e+00 0.000000e+00 0.000000e+00
1
Step 452000
Ar 8.892670e-01 0.000000e+00 0.000000e+00
1
Step 453000
Ar 1.045623e+00 0.000000e+00 0.000000e+00
1
Step 454000
Ar 1.053965e+00 0.000000e+00 0.000000e+00
1
Step 455000
Ar 1.046558e+00 0.000000e+00 0.000000e+00
1
Step 456000
Ar 1.155438e+00 0.000000e+00 0.000000e+00
1
Step 457000
Ar 9.945255e-01 0.000000e+00 0.000000e+00
1
Step 458000
Ar 1.120435e+00 0.000000e+00 0.000000e+00
1
Step 459000
Ar 9.693150e-01 0.000000e+00 0.000000e+00
1
Step 460000
Ar 9.539236e-01 0.000000e+00 0.000000e+00
1
Step 461000
Ar 1.141469e+00 0.000000e+00 0.000000e+00
1
Step 462000
Ar 9.928449e-01 0.000000e+00 0.000000e+00
1
Step 463000
Ar 9.337971e-01 0.000000e+00 0.000000e+00
1
Step 464000
Ar 1.059140e+00 0.000000e+00 0.000000e+00
1
Step 465000
Ar 1.021618e+00 0.000000e+00 0.000000e+00
1
Step 466000
Ar 6.589528e-01 0.000000e+00 0.000000e+00
1
Step 467000
Ar 1.050020e+00 0.000000e+00 0.000000e+00
1
Step 468000
Ar 9.353435e-01 0.000000e+00 0.000000e+00
1
Step 469000
Ar 1.055414e+00 0.000000e+00 0.000000e+00
1
Step 470000
Ar 1.038989e+00 0.000000e+00 0.000000e+00
1
Step 471000
Ar 8.353468e-01 0.000000e+00 0.000000e+00
1
Step 472000
Ar 1.193867e+00 0.000000e+00 0.000000e+00
1
Step 473000
Ar 1.061526e+00 0.000000e+00 0.000000e+00
1
Step 474000
Ar 9.962683e-01 0.000000e+00 0.000000e+00
1
Step 475000
Ar 6.337594e-01 0.000000e+00 0.000000e+00
1
Step 476000
Ar 1.055302e+00 0.000000e+00 0.000000e+00
1
Step 477000
Ar 1.237087e+00 0.000000e+00 0.000000e+00
1
Step 478000
Ar 1.059279e+00 0.000000e+00 0.000000e+00
1
Step 479000
Ar 6.275348e-01 0.000000e+00 0.000000e+00
1
Step 480000
Ar 1.107657e+00 0.000000e+00 0.000000e+00
1
Step 481000
Ar 8.732714e-01 0.000000e+00 0.000000e+00
1
Step 482000
Ar 8.868217e-01 0.000000e+00 0.000000e+00
1
Step 483000
Ar 1.111072e+00 0.000000e+00 0.000000e+00
1
Step 484000
Ar 8.624486e-01 0.000000e+00 0.000000e+00
1
Step 485000
Ar 1.209652e+00 0.000000e+00 0.000000e+00
1
Step 486000
Ar 1.188825e+00 0.000000e+00 0.000000e+00
1
Step 487000
Ar 9.300540e-01 0.000000e+00 0.000000e+00
1
Step 488000
Ar 1.121878e+00 0.000000e+00 0.000000e+00
1
Step 489000
Ar 1.120256e+00 0.000000e+00 0.000000e+00
1
Step 490000
Ar 1.117632e+00 0.000000e+00 0.000000e+00
1
Step 491000
Ar 1.127075e+00 0.000000e+00 0.000000e+00
1
Step 492000
Ar 1.131024e+00 0.000000e+00 0.000000e+00
1
Step 493000
Ar 1.130418e+00 0.000000e+00 0.000000e+00
1
Step 494000
Ar 1.124937e+00 0.000000e+00 0.000000e+00
1
Step 495000
Ar 1.123666e+00 0.000000e+00 0.000000e+00
1
Step 496000
Ar 1.131913e+00 0.000000e+00 0.000000e+00
1
Step 497000
Ar 1.140311e+00 0.000000e+00 0.000000e+00
1
Step 498000
Ar 1.134248e+00 0.000000e+00 0.000000e+00
1
Step 499000
Ar 1.131136e+00 0.000000e+00 0.000000e+00
1
Step 500000
Ar 9.869561e-01 0.000000e+00 0.000000e+00
1
Step 501000
Ar 1.050111e+00 0.000000e+00 0.000000e+00
1
Step 502000
Ar 1.075051e+00 0.000000e+00 0.000000e+00
1
Step 503000
Ar 1.129155e+00 0.000000e+00 0.000000e+00
1
Step 504000
Ar 1.056224e+00 0.000000e+00 0.000000e+00
1
Step 505000
Ar 7.038580e-01 0.000000e+00 0.000000e+00
1
Step 506000
Ar 9.737504e-01 0.000000e+00 0.000000e+00
1
Step 507000
Ar 1.132294e+00 0.000000e+00 0.000000e+00
1
Step 508000
Ar 1.132003e+00 0.000000e+00 0.000000e+00
1
Step 509000
Ar 1.129688e+00 0.000000e+00 0.000000e+00
1
Step 510000
Ar 1.130450e+00 0.000000e+00 0.000000e+00
1
Step 511000
Ar 1.051212e+00 0.000000e+00 0.000000e+00
1
Step 512000
Ar 1.110160e+00 0.000000e+00 0.000000e+00
1
Step 513000
Ar 8.071038e-01 0.000000e+00 0.000000e+00
1
Step 514000
Ar 8.550204e-01 0.000000e+00 0.000000e+00
1
Step 515000
Ar 9.110971e-01 0.000000e+00 0.000000e+00
1
Step 516000
Ar 9.122057e-01 0.000000e+00 0.000000e+00
1
Step 517000
Ar 9.166527e-01 0.000000e+00 0.000000e+00
1
Step 518000
Ar 8.985052e-01 0.000000e+00 0.000000e+00
1
Step 519000
Ar 9.024738e-01 0.000000e+00 0.000000e+00
1
Step 520000
Ar 8.975579e-01 0.000000e+00 0.000000e+00
1
Step 521000
Ar 9.145706e-01 0.000000e+00 0.000000e+00
1
Step 522000
Ar 9.094588e-01 0.000000e+00 0.000000e+00
1
Step 523000
Ar 9.106864e-01 0.000000e+00 0.000000e+00
1
Step 524000
Ar 9.104568e-01 0.000000e+00 0.000000e+00
1
Step 525000
Ar 9.093363e-01 0.000000e+00 0.000000e+00
1
Step 526000
Ar 8.850540e-01 0.000000e+00 0.000000e+00
1
Step 527000
Ar 9.416610e-01 0.000000e+00 0.000000e+00
1
Step 528000
Ar 1.201957e+00 0.000000e+00 0.000000e+00
1
Step 529000
Ar 1.301783e+00 0.000000e+00 0.000000e+00
1
Step 530000
Ar 6.989548e-01 0.000000e+00 0.000000e+00
1
Step 531000
Ar 9.657289e-01 0.000000e+00 0.000000e+00
1
Step 532000
Ar 1.079257e+00 0.000000e+00 0.000000e+00
1
Step 533000
Ar 1.076093e+00 0.000000e+00 0.000000e+00
1
Step 534000
Ar 1.075767e+00 0.000000e+00 0.000000e+00
1
Step 535000
Ar 1.037648e+00 0.000000e+00 0.000000e+00
1
Step 536000
Ar 9.158006e-01 0.000000e+00 0.000000e+00
1
Step 537000
Ar 1.138862e+00 0.000000e+00 0.000000e+00
1
Step 538000
Ar 1.136307e+00 0.000000e+00 0.000000e+00
1
Step 539000
Ar 7.993840e-01 0.000000e+00 0.000000e+00
1
Step 540000
Ar 8.753651e-01 0.000000e+00 0.000000e+00
1
Step 541000
Ar 8.855314e-01 0.000000e+00 0.000000e+00
1
Step 542000
Ar 1.051731e+00 0.000000e+00 0.000000e+00
1
Step 543000
Ar 1.053733e+00 0.000000e+00 0.000000e+00
1
Step 544000
Ar 9.772695e-01 0.000000e+00 0.000000e+00
1
Step 545000
Ar 1.136761e+00 0.000000e+00 0.000000e+00
1
Step 546000
Ar 1.142852e+00 0.000000e+00 0.000000e+00
1
Step 547000
Ar 7.903274e-01 0.000000e+00 0.000000e+00
1
Step 548000
Ar 1.053054e+00 0.000000e+00 0.000000e+00
1
Step 549000
Ar 1.093787e+00 0.000000e+00 0.000000e+00
1
Step 550000
Ar 1.025792e+00 0.000000e+00 0.000000e+00
1
Step 551000
Ar 9.617218e-01 0.000000e+00 0.000000e+00
1
Step 552000
Ar 7.948308e-01 0.000000e+00 0.000000e+00
1
Step 553000
Ar 8.168371e-01 0.000000e+00 0.000000e+00
1
Step 554000
Ar 9.170474e-01 0.000000e+00 0.000000e+00
1
Step 555000
Ar 1.053589e+00 0.000000e+00 0.000000e+00
1
Step 556000
Ar 8.294470e-01 0.000000e+00 0.000000e+00
1
Step 557000
Ar 1.074903e+00 0.000000e+00 0.000000e+00
1
Step 558000
Ar 1.192857e+00 0.000000e+00 0.000000e+00
1
Step 559000
Ar 7.121178e-01 0.000000e+00 0.000000e+00
1
Step 560000
Ar 1.320210e+00 0.000000e+00 0.000000e+00
1
Step 561000
Ar 1.147919e+00 0.000000e+00 0.000000e+00
1
Step 562000
Ar 1.142351e+00 0.000000e+00 0.000000e+00
1
Step 563000
Ar 1.093686e+00 0.000000e+00 0.000000e+00
1
Step 564000
Ar 1.091002e+00 0.000000e+00 0.000000e+00
1
Step 565000
Ar 8.835788e-01 0.000000e+00 0.000000e+00
1
Step 566000
Ar 8.147824e-01 0.000000e+00 0.000000e+00
1
Step 567000
Ar 1.115870e+00 0.000000e+00 0.000000e+00
1
Step 568000
Ar 8.786943e-01 0.000000e+00 0.000000e+00
1
Step 569000
Ar 1.291297e+00 0.000000e+00 0.000000e+00
1
Step 570000
Ar 1.072676e+00 0.000000e+00 0.000000e+00
1
Step 571000
Ar 1.058122e+00 0.000000e+00 0.000000e+00
1
Step 572000
Ar 1.056169e+00 0.000000e+00 0.000000e+00
1
Step 573000
Ar 1.062987e+00 0.000000e+00 0.000000e+00
1
Step 574000
Ar 1.055439e+00 0.000000e+00 0.000000e+00
1
Step 575000
Ar 1.056863e+00 0.000000e+00 0.000000e+00
1
Step 576000
Ar 1.094141e+00 0.000000e+00 0.000000e+00
1
Step 577000
Ar 1.091740e+00 0.000000e+00 0.000000e+00
1
Step 578000
Ar 1.096953e+00 0.000000e+00 0.000000e+00
1
Step 579000
Ar 1.098627e+00 0.000000e+00 0.000000e+00
1
Step 580000
Ar 1.090004e+00 0.000000e+00 0.000000e+00
1
Step 581000
Ar 1.038759e+00 0.000000e+00 0.000000e+00
1
Step 582000
Ar 1.172811e+00 0.000000e+00 0.000000e+00
1
Step 583000
Ar 5.424267e-01 0.000000e+00 0.000000e+00
1
Step 584000
Ar 7.908794e-01 0.000000e+00 0.000000e+00
1
Step 585000
Ar 1.075539e+00 0.000000e+00 0.000000e+00
1
Step 586000
Ar 9.264171e-01 0.000000e+00 0.000000e+00
1
Step 587000
Ar 9.193748e-01 0.000000e+00 0.000000e+00
1
Step 588000
Ar 1.085252e+00 0.000000e+00 0.000000e+00
1
Step 589000
Ar 7.949989e-01 0.000000e+00 0.000000e+00
1
Step 590000
Ar 8.262882e-01 0.000000e+00 0.000000e+00
1
Step 591000
Ar 7.219752e-01 0.000000e+00 0.000000e+00
1
Step 592000
Ar 9.597141e-01 0.000000e+00 0.000000e+00
1
Step 593000
Ar 9.497518e-01 0.000000e+00 0.000000e+00
1
Step 594000
Ar 1.025930e+00 0.000000e+00 0.000000e+00
1
Step 595000
Ar -9.787097e-01 0.000000e+00 0.000000e+00
1
Step 596000
Ar -9.653225e-01 0.000000e+00 0.000000e+00
1
Step 597000
Ar -9.681198e-01 0.000000e+00 0.000000e+00
1
Step 598000
Ar -9.691529e-01 0.000000e+00 0.000000e+00
1
Step 599000
Ar -9.690239e-01 0.000000e+00 0.000000e+00
1
Step 600000
Ar -9.673006e-01 0.000000e+00 0.000000e+00
1
Step 601000
Ar -9.576423e-01 0.000000e+00 0.000000e+00
1
Step 602000
Ar -9.477241e-01 0.000000e+00 0.000000e+00
1
Step 603000
Ar -9.557798e-01 0.000000e+00 0.000000e+00
1
Step 604000
Ar -9.512608e-01 0.000000e+00 0.000000e+00
1
Step 605000
Ar -9.533269e-01 0.000000e+00 0.000000e+00
1
Step 606000
Ar -9.924047e-01 0.000000e+00 0.000000e+00
1
Step 607000
Ar -9.986056e-01 0.000000e+00 0.000000e+00
1
Step 608000
Ar -1.005525e+00 0.000000e+00 0.000000e+00
1
Step 609000
Ar -1.021557e+00 0.000000e+00 0.000000e+00
1
Step 610000
Ar -1.007950e+00 0.000000e+00 0.000000e+00
1
Step 611000
Ar -1.018479e+00 0.000000e+00 0.000000e+00
1
Step 612000
Ar -1.024887e+00 0.000000e+00 0.000000e+00
1
Step 613000
Ar -1.027014e+00 0.000000e+00 0.000000e+00
1
Step 614000
Ar -1.030087e+00 0.000000e+00 0.000000e+00
1
Step 615000
Ar -1.022270e+00 0.000000e+00 0.000000e+00
1
Step 616000
Ar -9.886393e-01 0.000000e+00 0.000000e+00
1
Step 617000
Ar -9.907023e-01 0.000000e+00 0.000000e+00
1
Step 618000
Ar -9.944646e-01 0.000000e+00 0.000000e+00
1
Step 619000
Ar -9.963064e-01 0.000000e+00 0.000000e+00
1
Step 620000
Ar -9.901386e-01 0.000000e+00 0.000000e+00
1
Step 621000
Ar -1.003851e+00 0.000000e+00 0.000000e+00
1
Step 622000
Ar -1.032988e+00 0.000000e+00 0.000000e+00
1
Step 623000
Ar -1.030686e+00 0.000000e+00 0.000000e+00
1
Step 624000
Ar -1.032500e+00 0.000000e+00 0.000000e+00
1
Step 625000
Ar -1.033858e+00 0.000000e+00 0.000000e+00
1
Step 626000
Ar -1.047022e+00 0.000000e+00 0.000000e+00
1
Step 627000
Ar -1.045983e+00 0.000000e+00 0.000000e+00
1
Step 628000
Ar -1.041763e+00 0.000000e+00 0.000000e+00
1
Step 629000
Ar -1.044689e+00 0.000000e+00 0.000000e+00
1
Step 630000
Ar -1.044973e+00 0.000000e+00 0.000000e+00
1
Step 631000
Ar -9.424815e-01 0.000000e+00 0.000000e+00
1
Step 632000
Ar -9.418408e-01 0.000000e+00 0.000000e+00
1
Step 633000
Ar -9.398286e-01 0.000000e+00 0.000000e+00
1
Step 634000
Ar -9.414882e-01 0.000000e+00 0.000000e+00
1
Step 635000
Ar -9.396496e-01 0.000000e+00 0.000000e+00
1
Step 636000
Ar -1.001106e+00 0.000000e+00 0.000000e+00
1
Step 637000
Ar -1.016204e+00 0.000000e+00 0.000000e+00
1
Step 638000
Ar -9.976963e-01 0.000000e+00 0.000000e+00
1
Step 639000
Ar -9.976936e-01 0.000000e+00 0.000000e+00
1
Step 640000
Ar -1.002041e+00 0.000000e+00 0.000000e+00
1
Step 641000
Ar -9.614145e-01 0.000000e+00 0.000000e+00
1
Step 642000
Ar -9.874097e-01 0.000000e+00 0.000000e+00
1
Step 643000
Ar -9.819109e-01 0.000000e+00 0.000000e+00
1
Step 644000
Ar -9.268533e-01 0.000000e+00 0.000000e+00
1
Step 645000
Ar -9.848852e-01 0.000000e+00 0.000000e+00
1
Step 646000
Ar -1.055518e+00 0.000000e+00 0.000000e+00
1
Step 647000
Ar -1.056981e+00 0.000000e+00 0.000000e+00
1
Step 648000
Ar -1.051986e+00 0.000000e+00 0.000000e+00
1
Step 649000
Ar -1.056840e+00 0.000000e+00 0.000000e+00
1
Step 650000
Ar -1.053913e+00 0.000000e+00 0.000000e+00
1
Step 651000
Ar -1.063484e+00 0.000000e+00 0.000000e+00
1
Step 652000
Ar -1.062008e+00 0.000000e+00 0.000000e+00
1
Step 653000
Ar -1.066120e+00 0.000000e+00 0.000000e+00
1
Step 654000