1
Step 120000
Ar 8.569697e-01 0.000000e+00 0.000000e+00
1
Step 121000
Ar 1.079283e+00 0.000000e+00 0.000000e+00
1
Step 122000
Ar 1.144276e+00 0.000000e+00 0.000000e+00
1
Step 123000
Ar 7.627226e-01 0.000000e+00 0.000000e+00
1
Step 124000
Ar 8.560335e-01 0.000000e+00 0.000000e+00
1
Step 125000
Ar 1.154156e+00 0.000000e+00 0.000000e+00
1
Step 126000
Ar 1.223811e+00 0.000000e+00 0.000000e+00
1
Step 127000
Ar 1.163691e+00 0.000000e+00 0.000000e+00
1
Step 128000
Ar 1.177302e+00 0.000000e+00 0.000000e+00
1
Step 129000
Ar 1.188839e+00 0.000000e+00 0.000000e+00
1
Step 130000
Ar 1.194129e+00 0.000000e+00 0.000000e+00
1
Step 131000
Ar 1.260193e+00 0.000000e+00 0.000000e+00
1
Step 132000
Ar 8.447842e-01 0.000000e+00 0.000000e+00
1
Step 133000
Ar 8.421811e-01 0.000000e+00 0.000000e+00
1
Step 134000
Ar 1.134657e+00 0.000000e+00 0.000000e+00
1
Step 135000
Ar 9.818232e-01 0.000000e+00 0.000000e+00
1
Step 136000
Ar 6.805801e-01 0.000000e+00 0.000000e+00
1
Step 137000
Ar 9.091230e-01 0.000000e+00 0.000000e+00
1
Step 138000
Ar 9.433941e-01 0.000000e+00 0.000000e+00
1
Step 139000
Ar 9.061128e-01 0.000000e+00 0.000000e+00
1
Step 140000
Ar 9.634778e-01 0.000000e+00 0.000000e+00
1
Step 141000
Ar 8.849969e-01 0.000000e+00 0.000000e+00
1
Step 142000
Ar 9.416641e-01 0.000000e+00 0.000000e+00
1
Step 143000
Ar 7.065477e-01 0.000000e+00 0.000000e+00
1
Step 144000
Ar 9.377179e-01 0.000000e+00 0.000000e+00
1
Step 145000
Ar 9.507924e-01 0.000000e+00 0.000000e+00
1
Step 146000
Ar 8.670290e-01 0.000000e+00 0.000000e+00
1
Step 147000
Ar 7.700889e-01 0.000000e+00 0.000000e+00
1
Step 148000
Ar 9.096057e-01 0.000000e+00 0.000000e+00
1
Step 149000
Ar 7.960523e-01 0.000000e+00 0.000000e+00
1
Step 150000
Ar 8.853084e-01 0.000000e+00 0.000000e+00
1
Step 151000
Ar 9.130834e-01 0.000000e+00 0.000000e+00
1
Step 152000
Ar 9.278253e-01 0.000000e+00 0.000000e+00
1
Step 153000
Ar 9.431008e-01 0.000000e+00 0.000000e+00
1
Step 154000
Ar 9.162155e-01 0.000000e+00 0.000000e+00
1
Step 155000
Ar 8.991404e-01 0.000000e+00 0.000000e+00
1
Step 156000
Ar 9.244971e-01 0.000000e+00 0.000000e+00
1
Step 157000
Ar 9.159992e-01 0.000000e+00 0.000000e+00
1
Step 158000
Ar 9.240267e-01 0.000000e+00 0.000000e+00
1
Step 159000
Ar 9.163741e-01 0.000000e+00 0.000000e+00
1
Step 160000
Ar 9.138470e-01 0.000000e+00 0.000000e+00
1
Step 161000
Ar 1.038223e+00 0.000000e+00 0.000000e+00
1
Step 162000
Ar 1.010081e+00 0.000000e+00 0.000000e+00
1
Step 163000
Ar 1.097948e+00 0.000000e+00 0.000000e+00
1
Step 164000
Ar 1.000856e+00 0.000000e+00 0.000000e+00
1
Step 165000
Ar 1.086907e+00 0.000000e+00 0.000000e+00
1
Step 166000
Ar 1.045110e+00 0.000000e+00 0.000000e+00
1
Step 167000
Ar 1.042776e+00 0.000000e+00 0.000000e+00
1
Step 168000
Ar 1.009874e+00 0.000000e+00 0.000000e+00
1
Step 169000
Ar 1.012603e+00 0.000000e+00 0.000000e+00
1
Step 170000
Ar 1.108935e+00 0.000000e+00 0.000000e+00
1
Step 171000
Ar 1.010189e+00 0.000000e+00 0.000000e+00
1
Step 172000
Ar 1.014026e+00 0.000000e+00 0.000000e+00
1
Step 173000
Ar 1.000456e+00 0.000000e+00 0.000000e+00
1
Step 174000
Ar 1.022614e+00 0.000000e+00 0.000000e+00
1
Step 175000
Ar 1.055930e+00 0.000000e+00 0.000000e+00
1
Step 176000
Ar 1.072062e+00 0.000000e+00 0.000000e+00
1
Step 177000
Ar 9.996094e-01 0.000000e+00 0.000000e+00
1
Step 178000
Ar 1.032245e+00 0.000000e+00 0.000000e+00
1
Step 179000
Ar 1.034334e+00 0.000000e+00 0.000000e+00
1
Step 180000
Ar 1.045074e+00 0.000000e+00 0.000000e+00
1
Step 181000
Ar 1.094897e+00 0.000000e+00 0.000000e+00
1
Step 182000
Ar 9.906856e-01 0.000000e+00 0.000000e+00
1
Step 183000
Ar 1.013918e+00 0.000000e+00 0.000000e+00
1
Step 184000
Ar 9.987079e-01 0.000000e+00 0.000000e+00
1
Step 185000
Ar 1.002997e+00 0.000000e+00 0.000000e+00
1
Step 186000
Ar 8.225547e-01 0.000000e+00 0.000000e+00
1
Step 187000
Ar 9.318164e-01 0.000000e+00 0.000000e+00
1
Step 188000
Ar 9.382072e-01 0.000000e+00 0.000000e+00
1
Step 189000
Ar 9.240431e-01 0.000000e+00 0.000000e+00
1
Step 190000
Ar 1.033760e+00 0.000000e+00 0.000000e+00
1
Step 191000
Ar 1.067634e+00 0.000000e+00 0.000000e+00
1
Step 192000
Ar 1.132894e+00 0.000000e+00 0.000000e+00
1
Step 193000
Ar 1.127207e+00 0.000000e+00 0.000000e+00
1
Step 194000
Ar 1.127731e+00 0.000000e+00 0.000000e+00
1
Step 195000
Ar 1.126562e+00 0.000000e+00 0.000000e+00
1
Step 196000
Ar 1.138643e+00 0.000000e+00 0.000000e+00
1
Step 197000
Ar 1.144491e+00 0.000000e+00 0.000000e+00
1
Step 198000
Ar 9.943007e-01 0.000000e+00 0.000000e+00
1
Step 199000
Ar 9.936484e-01 0.000000e+00 0.000000e+00
1
Step 200000
Ar 9.940862e-01 0.000000e+00 0.000000e+00
1
Step 201000
Ar 8.683440e-01 0.000000e+00 0.000000e+00
1
Step 202000
Ar 8.532794e-01 0.000000e+00 0.000000e+00
1
Step 203000
Ar 8.954351e-01 0.000000e+00 0.000000e+00
1
Step 204000
Ar 7.688183e-01 0.000000e+00 0.000000e+00
1
Step 205000
Ar 6.650796e-01 0.000000e+00 0.000000e+00
1
Step 206000
Ar 8.355759e-01 0.000000e+00 0.000000e+00
1
Step 207000
Ar 8.201678e-01 0.000000e+00 0.000000e+00
1
Step 208000
Ar 7.795995e-01 0.000000e+00 0.000000e+00
1
Step 209000
Ar 8.379618e-01 0.000000e+00 0.000000e+00
1
Step 210000
Ar 8.666956e-01 0.000000e+00 0.000000e+00
1
Step 211000
Ar 8.567936e-01 0.000000e+00 0.000000e+00
1
Step 212000
Ar 8.125301e-01 0.000000e+00 0.000000e+00
1
Step 213000
Ar 8.031420e-01 0.000000e+00 0.000000e+00
1
Step 214000
Ar 7.801217e-01 0.000000e+00 0.000000e+00
1
Step 215000
Ar 8.541559e-01 0.000000e+00 0.000000e+00
1
Step 216000
Ar 7.477853e-01 0.000000e+00 0.000000e+00
1
Step 217000
Ar 8.342804e-01 0.000000e+00 0.000000e+00
1
Step 218000
Ar 7.972851e-01 0.000000e+00 0.000000e+00
1
Step 219000
Ar 8.241989e-01 0.000000e+00 0.000000e+00
1
Step 220000
Ar 7.902741e-01 0.000000e+00 0.000000e+00
1
Step 221000
Ar 9.763361e-01 0.000000e+00 0.000000e+00
1
Step 222000
Ar 1.021440e+00 0.000000e+00 0.000000e+00
1
Step 223000
Ar 1.011357e+00 0.000000e+00 0.000000e+00
1
Step 224000
Ar 1.014945e+00 0.000000e+00 0.000000e+00
1
Step 225000
Ar 1.024416e+00 0.000000e+00 0.000000e+00
1
Step 226000
Ar 1.146840e+00 0.000000e+00 0.000000e+00
1
Step 227000
Ar 1.169845e+00 0.000000e+00 0.000000e+00
1
Step 228000
Ar 1.070480e+00 0.000000e+00 0.000000e+00
1
Step 229000
Ar 1.071145e+00 0.000000e+00 0.000000e+00
1
Step 230000
Ar 1.073708e+00 0.000000e+00 0.000000e+00
1
Step 231000
Ar 1.067215e+00 0.000000e+00 0.000000e+00
1
Step 232000
Ar 1.144642e+00 0.000000e+00 0.000000e+00
1
Step 233000
Ar 1.136070e+00 0.000000e+00 0.000000e+00
1
Step 234000
Ar 1.139745e+00 0.000000e+00 0.000000e+00
1
Step 235000
Ar 1.140570e+00 0.000000e+00 0.000000e+00
1
Step 236000
Ar 1.169565e+00 0.000000e+00 0.000000e+00
1
Step 237000
Ar 1.165388e+00 0.000000e+00 0.000000e+00
1
Step 238000
Ar 1.179611e+00 0.000000e+00 0.000000e+00
1
Step 239000
Ar 1.164651e+00 0.000000e+00 0.000000e+00
1
Step 240000
Ar 1.207545e+00 0.000000e+00 0.000000e+00
1
Step 241000
Ar 1.016954e+00 0.000000e+00 0.000000e+00
1
Step 242000
Ar 1.013862e+00 0.000000e+00 0.000000e+00
1
Step 243000
Ar 1.012344e+00 0.000000e+00 0.000000e+00
1
Step 244000
Ar 8.304517e-01 0.000000e+00 0.000000e+00
1
Step 245000
Ar 8.446974e-01 0.000000e+00 0.000000e+00
1
Step 246000
Ar 7.721898e-01 0.000000e+00 0.000000e+00
1
Step 247000
Ar 7.408094e-01 0.000000e+00 0.000000e+00
1
Step 248000
Ar 7.676714e-01 0.000000e+00 0.000000e+00
1
Step 249000
Ar 7.652706e-01 0.000000e+00 0.000000e+00
1
Step 250000
Ar 7.382184e-01 0.000000e+00 0.000000e+00
1
Step 251000
Ar 4.260758e-01 0.000000e+00 0.000000e+00
1
Step 252000
Ar 1.960731e-01 0.000000e+00 0.000000e+00
1
Step 253000
Ar 7.645869e-01 0.000000e+00 0.000000e+00
1
Step 254000
Ar 7.705897e-01 0.000000e+00 0.000000e+00
1
Step 255000
Ar 7.774225e-01 0.000000e+00 0.000000e+00
1
Step 256000
Ar 7.606126e-01 0.000000e+00 0.000000e+00
1
Step 257000
Ar 7.582108e-01 0.000000e+00 0.000000e+00
1
Step 258000
Ar 7.511659e-01 0.000000e+00 0.000000e+00
1
Step 259000
Ar 8.254003e-01 0.000000e+00 0.000000e+00
1
Step 260000
Ar 8.172223e-01 0.000000e+00 0.000000e+00
1
Step 261000
Ar 8.257854e-01 0.000000e+00 0.000000e+00
1
Step 262000
Ar 8.352076e-01 0.000000e+00 0.000000e+00
1
Step 263000
Ar 8.247982e-01 0.000000e+00 0.000000e+00
1
Step 264000
Ar 8.009133e-01 0.000000e+00 0.000000e+00
1
Step 265000
Ar 8.097639e-01 0.000000e+00 0.000000e+00
1
Step 266000
Ar 7.558189e-01 0.000000e+00 0.000000e+00
1
Step 267000
Ar 1.096980e+00 0.000000e+00 0.000000e+00
1
Step 268000
Ar 1.169138e+00 0.000000e+00 0.000000e+00
1
Step 269000
Ar 1.176701e+00 0.000000e+00 0.000000e+00
1
Step 270000
Ar 1.158253e+00 0.000000e+00 0.000000e+00
1
Step 271000
Ar 1.226608e+00 0.000000e+00 0.000000e+00
1
Step 272000
Ar 1.265007e+00 0.000000e+00 0.000000e+00
1
Step 273000
Ar 1.314984e+00 0.000000e+00 0.000000e+00
1
Step 274000
Ar 1.283994e+00 0.000000e+00 0.000000e+00
1
Step 275000
Ar 1.237102e+00 0.000000e+00 0.000000e+00
1
Step 276000
Ar 1.286271e+00 0.000000e+00 0.000000e+00
1
Step 277000
Ar 1.267471e+00 0.000000e+00 0.000000e+00
1
Step 278000
Ar 1.273582e+00 0.000000e+00 0.000000e+00
1
Step 279000
Ar 1.265468e+00 0.000000e+00 0.000000e+00
1
Step 280000
Ar 1.249471e+00 0.000000e+00 0.000000e+00
1
Step 281000
Ar 1.284127e+00 0.000000e+00 0.000000e+00
1
Step 282000
Ar 1.261083e+00 0.000000e+00 0.000000e+00
1
Step 283000
Ar 1.279112e+00 0.000000e+00 0.000000e+00
1
Step 284000
Ar 1.280484e+00 0.000000e+00 0.000000e+00
1
Step 285000
Ar 1.301334e+00 0.000000e+00 0.000000e+00
1
Step 286000
Ar 1.330591e+00 0.000000e+00 0.000000e+00
1
Step 287000
Ar 1.341003e+00 0.000000e+00 0.000000e+00
1
Step 288000
Ar 1.313934e+00 0.000000e+00 0.000000e+00
1
Step 289000
Ar 1.330315e+00 0.000000e+00 0.000000e+00
1
Step 290000
Ar 1.164856e+00 0.000000e+00 0.000000e+00
1
Step 291000
Ar 1.320847e+00 0.000000e+00 0.000000e+00
1
Step 292000
Ar 1.178459e+00 0.000000e+00 0.000000e+00
1
Step 293000
Ar 1.220259e+00 0.000000e+00 0.000000e+00
1
Step 294000
Ar 1.217843e+00 0.000000e+00 0.000000e+00
1
Step 295000
Ar 1.181045e+00 0.000000e+00 0.000000e+00
1
Step 296000
Ar 1.191959e+00 0.000000e+00 0.000000e+00
1
Step 297000
Ar 1.282699e+00 0.000000e+00 0.000000e+00
1
Step 298000
Ar 1.268878e+00 0.000000e+00 0.000000e+00
1
Step 299000
Ar 1.264781e+00 0.000000e+00 0.000000e+00
1
Step 300000
Ar 1.283767e+00 0.000000e+00 0.000000e+00
1
Step 301000
Ar 1.263495e+00 0.000000e+00 0.000000e+00
1
Step 302000
Ar 1.255964e+00 0.000000e+00 0.000000e+00
1
Step 303000
Ar 1.223698e+00 0.000000e+00 0.000000e+00
1
Step 304000
Ar 1.272500e+00 0.000000e+00 0.000000e+00
1
Step 305000
Ar 1.265656e+00 0.000000e+00 0.000000e+00
1
Step 306000
Ar 1.222328e+00 0.000000e+00 0.000000e+00
1
Step 307000
Ar 1.223949e+00 0.000000e+00 0.000000e+00
1
Step 308000
Ar 1.222930e+00 0.000000e+00 0.000000e+00
1
Step 309000
Ar 1.221799e+00 0.000000e+00 0.000000e+00
1
Step 310000
Ar 1.222136e+00 0.000000e+00 0.000000e+00
1
Step 311000
Ar 1.177267e+00 0.000000e+00 0.000000e+00
1
Step 312000
Ar 1.172149e+00 0.000000e+00 0.000000e+00
1
Step 313000
Ar 1.207077e+00 0.000000e+00 0.000000e+00
1
Step 314000
Ar 1.174067e+00 0.000000e+00 0.000000e+00
1
Step 315000
Ar 1.231850e+00 0.000000e+00 0.000000e+00
1
Step 316000
Ar 1.170134e+00 0.000000e+00 0.000000e+00
1
Step 317000
Ar 1.326093e+00 0.000000e+00 0.000000e+00
1
Step 318000
Ar 1.383937e+00 0.000000e+00 0.000000e+00
1
Step 319000
Ar 1.349107e+00 0.000000e+00 0.000000e+00
1
Step 320000
Ar 1.317104e+00 0.000000e+00 0.000000e+00
1
Step 321000
Ar 1.341000e+00 0.000000e+00 0.000000e+00
1
Step 322000
Ar 1.354890e+00 0.000000e+00 0.000000e+00
1
Step 323000
Ar 1.347693e+00 0.000000e+00 0.000000e+00
1
Step 324000
Ar 1.258843e+00 0.000000e+00 0.000000e+00
1
Step 325000
Ar 1.292807e+00 0.000000e+00 0.000000e+00
1
Step 326000
Ar 1.371107e+00 0.000000e+00 0.000000e+00
1
Step 327000
Ar 1.332733e+00 0.000000e+00 0.000000e+00
1
Step 328000
Ar 1.380037e+00 0.000000e+00 0.000000e+00
1
Step 329000
Ar 1.348131e+00 0.000000e+00 0.000000e+00
1
Step 330000
Ar 1.352802e+00 0.000000e+00 0.000000e+00
1
Step 331000
Ar 1.176397e+00 0.000000e+00 0.000000e+00
1
Step 332000
Ar 9.128384e-01 0.000000e+00 0.000000e+00
1
Step 333000
Ar 9.284339e-01 0.000000e+00 0.000000e+00
1
Step 334000
Ar 9.401877e-01 0.000000e+00 0.000000e+00
1
Step 335000
Ar 9.345997e-01 0.000000e+00 0.000000e+00
1
Step 336000
Ar 9.249223e-01 0.000000e+00 0.000000e+00
1
Step 337000
Ar 9.285523e-01 0.000000e+00 0.000000e+00
1
Step 338000
Ar 9.237965e-01 0.000000e+00 0.000000e+00
1
Step 339000
Ar 8.698748e-01 0.000000e+00 0.000000e+00
1
Step 340000
Ar 1.097437e+00 0.000000e+00 0.000000e+00
1
Step 341000
Ar 8.282275e-01 0.000000e+00 0.000000e+00
1
Step 342000
Ar 8.324312e-01 0.000000e+00 0.000000e+00
1
Step 343000
Ar 8.302373e-01 0.000000e+00 0.000000e+00
1
Step 344000
Ar 8.357963e-01 0.000000e+00 0.000000e+00
1
Step 345000
Ar 9.763430e-01 0.000000e+00 0.000000e+00
1
Step 346000
Ar 8.262519e-01 0.000000e+00 0.000000e+00
1
Step 347000
Ar 8.320219e-01 0.000000e+00 0.000000e+00
1
Step 348000
Ar 8.334455e-01 0.000000e+00 0.000000e+00
1
Step 349000
Ar 8.883457e-01 0.000000e+00 0.000000e+00
1
Step 350000
Ar 9.220243e-01 0.000000e+00 0.000000e+00
1
Step 351000
Ar 9.477399e-01 0.000000e+00 0.000000e+00
1
Step 352000
Ar 9.544302e-01 0.000000e+00 0.000000e+00
1
Step 353000
Ar 9.702906e-01 0.000000e+00 0.000000e+00
1
Step 354000
Ar 9.443475e-01 0.000000e+00 0.000000e+00
1
Step 355000
Ar 9.321212e-01 0.000000e+00 0.000000e+00
1
Step 356000
Ar 1.065899e+00 0.000000e+00 0.000000e+00
1
Step 357000
Ar 1.068750e+00 0.000000e+00 0.000000e+00
1
Step 358000
Ar 1.121131e+00 0.000000e+00 0.000000e+00
1
Step 359000
Ar 1.056908e+00 0.000000e+00 0.000000e+00
1
Step 360000
Ar 1.036932e+00 0.000000e+00 0.000000e+00
1
Step 361000
Ar 1.058076e+00 0.000000e+00 0.000000e+00
1
Step 362000
Ar 1.119401e+00 0.000000e+00 0.000000e+00
1
Step 363000
Ar 1.118304e+00 0.000000e+00 0.000000e+00
1
Step 364000
Ar 1.063699e+00 0.000000e+00 0.000000e+00
1
Step 365000
Ar 1.067100e+00 0.000000e+00 0.000000e+00
1
Step 366000
Ar 1.114823e+00 0.000000e+00 0.000000e+00
1
Step 367000
Ar 1.137976e+00 0.000000e+00 0.000000e+00
1
Step 368000
Ar 1.117477e+00 0.000000e+00 0.000000e+00
1
Step 369000
Ar 1.117789e+00 0.000000e+00 0.000000e+00
1
Step 370000
Ar 1.118053e+00 0.000000e+00 0.000000e+00
1
Step 371000
Ar 1.105226e+00 0.000000e+00 0.000000e+00
1
Step 372000
Ar 1.135513e+00 0.000000e+00 0.000000e+00
1
Step 373000
Ar 1.079191e+00 0.000000e+00 0.000000e+00
1
Step 374000
Ar 1.136547e+00 0.000000e+00 0.000000e+00
1
Step 375000
Ar 1.137340e+00 0.000000e+00 0.000000e+00
1
Step 376000
Ar 1.069503e+00 0.000000e+00 0.000000e+00
1
Step 377000
Ar 1.084727e+00 0.000000e+00 0.000000e+00
1
Step 378000
Ar 1.064228e+00 0.000000e+00 0.000000e+00
1
Step 379000
Ar 1.151656e+00 0.000000e+00 0.000000e+00
1
Step 380000
Ar 1.054061e+00 0.000000e+00 0.000000e+00
1
Step 381000
Ar 7.025481e-01 0.000000e+00 0.000000e+00
1
Step 382000
Ar 7.073880e-01 0.000000e+00 0.000000e+00
1
Step 383000
Ar 6.954165e-01 0.000000e+00 0.000000e+00
1
Step 384000
Ar 8.020228e-01 0.000000e+00 0.000000e+00
1
Step 385000
Ar 7.638043e-01 0.000000e+00 0.000000e+00
1
Step 386000
Ar 7.516386e-01 0.000000e+00 0.000000e+00
1
Step 387000
Ar 5.737482e-01 0.000000e+00 0.000000e+00
1
Step 388000
Ar 6.013907e-01 0.000000e+00 0.000000e+00
1
Step 389000
Ar 5.423992e-01 0.000000e+00 0.000000e+00
1
Step 390000
Ar 4.836537e-01 0.000000e+00 0.000000e+00
1
Step 391000
Ar 4.108952e-01 0.000000e+00 0.000000e+00
1
Step 392000
Ar 3.094572e-01 0.000000e+00 0.000000e+00
1
Step 393000
Ar -1.973870e-01 0.000000e+00 0.000000e+00
1
Step 394000
Ar -1.074073e+00 0.000000e+00 0.000000e+00
1
Step 395000
Ar -1.070604e+00 0.000000e+00 0.000000e+00
1
Step 396000
Ar -1.106125e+00 0.000000e+00 0.000000e+00
1
Step 397000
Ar -1.102479e+00 0.000000e+00 0.000000e+00
1
Step 398000
Ar -1.123324e+00 0.000000e+00 0.000000e+00
1
Step 399000
Ar -1.181345e+00 0.000000e+00 0.000000e+00
1
Step 400000
Ar -9.152852e-01 0.000000e+00 0.000000e+00
1
Step 401000
Ar -9.403641e-01 0.000000e+00 0.000000e+00
1
Step 402000
Ar -1.020016e+00 0.000000e+00 0.000000e+00
1
Step 403000
Ar -1.010435e+00 0.000000e+00 0.000000e+00
1
Step 404000
Ar -1.014613e+00 0.000000e+00 0.000000e+00
1
Step 405000
Ar -1.024052e+00 0.000000e+00 0.000000e+00
1
Step 406000
Ar -1.032541e+00 0.000000e+00 0.000000e+00
1
Step 407000
Ar -1.037654e+00 0.000000e+00 0.000000e+00
1
Step 408000
Ar -1.045711e+00 0.000000e+00 0.000000e+00
1
Step 409000
Ar -1.048252e+00 0.000000e+00 0.000000e+00
1
Step 410000
Ar -1.049361e+00 0.000000e+00 0.000000e+00
1
Step 411000
Ar -1.172527e+00 0.000000e+00 0.000000e+00
1
Step 412000
Ar -1.123437e+00 0.000000e+00 0.000000e+00
1
Step 413000
Ar -9.659223e-01 0.000000e+00 0.000000e+00
1
Step 414000
Ar -8.940118e-01 0.000000e+00 0.000000e+00
1
Step 415000
Ar -8.852624e-01 0.000000e+00 0.000000e+00
1
Step 416000
Ar -8.310675e-01 0.000000e+00 0.000000e+00
1
Step 417000
Ar -8.650149e-01 0.000000e+00 0.000000e+00
1
Step 418000
Ar -7.598411e-01 0.000000e+00 0.000000e+00
1
Step 419000
Ar -7.810047e-01 0.000000e+00 0.000000e+00
1
Step 420000
Ar -8.295094e-01 0.000000e+00 0.000000e+00
1
Step 421000
Ar -7.272643e-01 0.000000e+00 0.000000e+00
1
Step 422000
Ar -8.166982e-01 0.000000e+00 0.000000e+00
1
Step 423000
Ar -7.506234e-01 0.000000e+00 0.000000e+00
1
Step 424000
Ar -7.736116e-01 0.000000e+00 0.000000e+00
1
Step 425000
Ar -7.214121e-01 0.000000e+00 0.000000e+00
1
Step 426000
Ar -7.380076e-01 0.000000e+00 0.000000e+00
1
Step 427000
Ar -7.800763e-01 0.000000e+00 0.000000e+00
1
Step 428000
Ar -7.608663e-01 0.000000e+00 0.000000e+00
1
Step 429000
Ar -7.595491e-01 0.000000e+00 0.000000e+00
1
Step 430000
Ar -8.585161e-01 0.000000e+00 0.000000e+00
1
Step 431000
Ar -8.416662e-01 0.000000e+00 0.000000e+00
1
Step 432000
Ar -8.435820e-01 0.000000e+00 0.000000e+00
1
Step 433000
Ar -8.973425e-01 0.000000e+00 0.000000e+00
1
Step 434000
Ar -9.053094e-01 0.000000e+00 0.000000e+00
1
Step 435000
Ar -8.975993e-01 0.000000e+00 0.000000e+00
1
Step 436000
Ar -9.631006e-01 0.000000e+00 0.000000e+00
1
Step 437000
Ar -1.012012e+00 0.000000e+00 0.000000e+00
1
Step 438000
Ar -9.323117e-01 0.000000e+00 0.000000e+00
1
Step 439000
Ar -9.829549e-01 0.000000e+00 0.000000e+00
1
Step 440000
Ar -9.961643e-01 0.000000e+00 0.000000e+00
1
Step 441000
Ar -9.007886e-01 0.000000e+00 0.000000e+00
1
Step 442000
Ar -9.633750e-01 0.000000e+00 0.000000e+00
1
Step 443000
Ar -9.826070e-01 0.000000e+00 0.000000e+00
1
Step 444000
Ar -9.745170e-01 0.000000e+00 0.000000e+00
1
Step 445000
Ar -9.843989e-01 0.000000e+00 0.000000e+00
1
Step 446000
Ar -9.623353e-01 0.000000e+00 0.000000e+00
1
Step 447000
Ar -9.300684e-01 0.000000e+00 0.000000e+00
1
Step 448000
Ar -9.643762e-01 0.000000e+00 0.000000e+00
1
Step 449000
Ar -9.723924e-01 0.000000e+00 0.000000e+00
1
Step 450000
Ar -9.505736e-01 0.000000e+00 0.000000e+00
1
Step 451000
Ar -9.321105e-01 0.000000e+00 0.000000e+00
1
Step 452000
Ar -9.301471e-01 0.000000e+00 0.000000e+00
1
Step 453000
Ar -9.336740e-01 0.000000e+00 0.000000e+00
1
Step 454000
Ar -9.339359e-01 0.000000e+00 0.000000e+00
1
Step 455000
Ar -7.962831e-01 0.000000e+00 0.000000e+00
1
Step 456000
Ar -9.311171e-01 0.000000e+00 0.000000e+00
1
Step 457000
Ar -9.263812e-01 0.000000e+00 0.000000e+00
1
Step 458000
Ar -9.677349e-01 0.000000e+00 0.000000e+00
1
Step 459000
Ar -9.614435e-01 0.000000e+00 0.000000e+00
1
Step 460000
Ar -9.781212e-01 0.000000e+00 0.000000e+00
1
Step 461000
Ar -1.059563e+00 0.000000e+00 0.000000e+00
1
Step 462000
Ar -1.062138e+00 0.000000e+00 0.000000e+00
1
Step 463000
Ar -1.164597e+00 0.000000e+00 0.000000e+00
1
Step 464000
Ar -1.255065e+00 0.000000e+00 0.000000e+00
1
Step 465000
Ar -1.080449e+00 0.000000e+00 0.000000e+00
1
Step 466000
Ar -1.107768e+00 0.000000e+00 0.000000e+00
1
Step 467000
Ar -1.125186e+00 0.000000e+00 0.000000e+00
1
Step 468000
Ar -1.159198e+00 0.000000e+00 0.000000e+00
1
Step 469000
Ar -1.095643e+00 0.000000e+00 0.000000e+00
1
Step 470000
Ar -1.119873e+00 0.000000e+00 0.000000e+00
1
Step 471000
Ar -1.135840e+00 0.000000e+00 0.000000e+00
1
Step 472000
Ar -1.191074e+00 0.000000e+00 0.000000e+00
1
Step 473000
Ar -1.189206e+00 0.000000e+00 0.000000e+00
1
Step 474000
Ar -1.276130e+00 0.000000e+00 0.000000e+00
1
Step 475000
Ar -1.151824e+00 0.000000e+00 0.000000e+00
1
Step 476000
Ar -1.108221e+00 0.000000e+00 0.000000e+00
1
Step 477000
Ar -1.105902e+00 0.000000e+00 0.000000e+00
1
Step 478000
Ar -1.105669e+00 0.000000e+00 0.000000e+00
1
Step 479000
Ar -1.100258e+00 0.000000e+00 0.000000e+00
1
Step 480000
Ar -1.116307e+00 0.000000e+00 0.000000e+00
1
Step 481000
Ar -1.034238e+00 0.000000e+00 0.000000e+00
1
Step 482000
Ar -1.031300e+00 0.000000e+00 0.000000e+00
1
Step 483000
Ar -1.034706e+00 0.000000e+00 0.000000e+00
1
Step 484000
Ar -1.008646e+00 0.000000e+00 0.000000e+00
1
Step 485000
Ar -1.014105e+00 0.000000e+00 0.000000e+00
1
Step 486000
Ar -1.008305e+00 0.000000e+00 0.000000e+00
1
Step 487000
Ar -1.000398e+00 0.000000e+00 0.000000e+00
1
Step 488000
Ar -1.008522e+00 0.000000e+00 0.000000e+00
1
Step 489000
Ar -1.038494e+00 0.000000e+00 0.000000e+00
1
Step 490000
Ar -1.061619e+00 0.000000e+00 0.000000e+00
1
Step 491000
Ar -1.035907e+00 0.000000e+00 0.000000e+00
1
Step 492000
Ar -1.038503e+00 0.000000e+00 0.000000e+00
1
Step 493000
Ar -1.031461e+00 0.000000e+00 0.000000e+00
1
Step 494000
Ar -1.036687e+00 0.000000e+00 0.000000e+00
1
Step 495000
Ar -1.036714e+00 0.000000e+00 0.000000e+00
1
Step 496000
Ar -1.092953e+00 0.000000e+00 0.000000e+00
1
Step 497000
Ar -1.099225e+00 0.000000e+00 0.000000e+00
1
Step 498000
Ar -1.105866e+00 0.000000e+00 0.000000e+00
1
Step 499000
Ar -1.094614e+00 0.000000e+00 0.000000e+00
1
Step 500000
Ar -1.104984e+00 0.000000e+00 0.000000e+00
1
Step 501000
Ar -1.003032e+00 0.000000e+00 0.000000e+00
1
Step 502000
Ar -1.018536e+00 0.000000e+00 0.000000e+00
1
Step 503000
Ar -1.093370e+00 0.000000e+00 0.000000e+00
1
Step 504000
Ar -1.094075e+00 0.000000e+00 0.000000e+00
1
Step 505000
Ar -1.094365e+00 0.000000e+00 0.000000e+00
1
Step 506000
Ar -1.082603e+00 0.000000e+00 0.000000e+00
1
Step 507000
Ar -9.979851e-01 0.000000e+00 0.000000e+00
1
Step 508000
Ar -1.006413e+00 0.000000e+00 0.000000e+00
1
Step 509000
Ar -1.003909e+00 0.000000e+00 0.000000e+00
1
Step 510000
Ar -1.087511e+00 0.000000e+00 0.000000e+00
1
Step 511000
Ar -1.003644e+00 0.000000e+00 0.000000e+00
1
Step 512000
Ar -1.005101e+00 0.000000e+00 0.000000e+00
1
Step 513000
Ar -9.911441e-01 0.000000e+00 0.000000e+00
1
Step 514000
Ar -1.018853e+00 0.000000e+00 0.000000e+00
1
Step 515000
Ar -7.785039e-01 0.000000e+00 0.000000e+00
1
Step 516000
Ar -7.868331e-01 0.000000e+00 0.000000e+00
1
Step 517000
Ar -7.470694e-01 0.000000e+00 0.000000e+00
1
Step 518000
Ar -7.367851e-01 0.000000e+00 0.000000e+00
1
Step 519000
Ar -7.495995e-01 0.000000e+00 0.000000e+00
1
Step 520000
Ar -7.392441e-01 0.000000e+00 0.000000e+00
1
Step 521000
Ar -7.650744e-01 0.000000e+00 0.000000e+00
1
Step 522000
Ar -7.568279e-01 0.000000e+00 0.000000e+00
1
Step 523000
Ar -7.478090e-01 0.000000e+00 0.000000e+00
1
Step 524000
Ar -7.669049e-01 0.000000e+00 0.000000e+00
1
Step 525000
Ar -7.573196e-01 0.000000e+00 0.000000e+00
1
Step 526000
Ar -9.386547e-01 0.000000e+00 0.000000e+00
1
Step 527000
Ar -9.305319e-01 0.000000e+00 0.000000e+00
1
Step 528000
Ar -9.364079e-01 0.000000e+00 0.000000e+00
1
Step 529000
Ar -9.434210e-01 0.000000e+00 0.000000e+00
1
Step 530000
Ar -9.308185e-01 0.000000e+00 0.000000e+00
1
Step 531000
Ar -8.786114e-01 0.000000e+00 0.000000e+00
1
Step 532000
Ar -9.639021e-01 0.000000e+00 0.000000e+00
1
Step 533000
Ar -9.634930e-01 0.000000e+00 0.000000e+00
1
Step 534000
Ar -9.435421e-01 0.000000e+00 0.000000e+00
1
Step 535000
Ar -8.690499e-01 0.000000e+00 0.000000e+00
1
Step 536000
Ar -8.814076e-01 0.000000e+00 0.000000e+00
1
Step 537000
Ar -9.043565e-01 0.000000e+00 0.000000e+00
1
Step 538000
Ar -9.109927e-01 0.000000e+00 0.000000e+00
1
Step 539000
Ar -9.652414e-01 0.000000e+00 0.000000e+00
1
Step 540000
Ar -9.579357e-01 0.000000e+00 0.000000e+00
1
Step 541000
Ar -9.672043e-01 0.000000e+00 0.000000e+00
1
Step 542000
Ar -9.712174e-01 0.000000e+00 0.000000e+00
1
Step 543000
Ar -9.063081e-01 0.000000e+00 0.000000e+00
1
Step 544000
Ar -9.408644e-01 0.000000e+00 0.000000e+00
1
Step 545000
Ar -9.444226e-01 0.000000e+00 0.000000e+00
1
Step 546000
Ar -9.364825e-01 0.000000e+00 0.000000e+00
1
Step 547000
Ar -1.002731e+00 0.000000e+00 0.000000e+00
1
Step 548000
Ar -1.005449e+00 0.000000e+00 0.000000e+00
1
Step 549000
Ar -1.002331e+00 0.000000e+00 0.000000e+00
1
Step 550000
Ar -9.728416e-01 0.000000e+00 0.000000e+00
1
Step 551000
Ar -7.488980e-01 0.000000e+00 0.000000e+00
1
Step 552000
Ar -8.476412e-01 0.000000e+00 0.000000e+00
1
Step 553000
Ar -8.466985e-01 0.000000e+00 0.000000e+00
1
Step 554000
Ar -8.474278e-01 0.000000e+00 0.000000e+00
1
Step 555000
Ar -8.450098e-01 0.000000e+00 0.000000e+00
1
Step 556000
Ar -8.502576e-01 0.000000e+00 0.000000e+00
1
Step 557000
Ar -5.738317e-01 0.000000e+00 0.000000e+00
1
Step 558000
Ar -6.993088e-01 0.000000e+00 0.000000e+00
1
Step 559000
Ar -8.153399e-01 0.000000e+00 0.000000e+00
1
Step 560000
Ar -8.197100e-01 0.000000e+00 0.000000e+00
1
Step 561000
Ar -7.505725e-01 0.000000e+00 0.000000e+00
1
Step 562000
Ar -7.670106e-01 0.000000e+00 0.000000e+00
1
Step 563000
Ar -8.054041e-01 0.000000e+00 0.000000e+00
1
Step 564000
Ar -7.468984e-01 0.000000e+00 0.000000e+00
1
Step 565000
Ar -7.714798e-01 0.000000e+00 0.000000e+00
1
Step 566000
Ar -5.549743e-01 0.000000e+00 0.000000e+00
1
Step 567000
Ar -6.618071e-01 0.000000e+00 0.000000e+00
1
Step 568000
Ar -5.373291e-01 0.000000e+00 0.000000e+00
1
Step 569000
Ar -6.023112e-01 0.000000e+00 0.000000e+00
1
Step 570000
Ar -7.492549e-01 0.000000e+00 0.000000e+00
1
Step 571000
Ar -6.550891e-01 0.000000e+00 0.000000e+00
1
Step 572000
Ar -5.936944e-01 0.000000e+00 0.000000e+00
1
Step 573000
Ar -6.462891e-01 0.000000e+00 0.000000e+00
1
Step 574000
Ar -4.362560e-01 0.000000e+00 0.000000e+00
1
Step 575000
Ar -6.400584e-01 0.000000e+00 0.000000e+00
1
Step 576000
Ar -5.068959e-01 0.000000e+00 0.000000e+00
1
Step 577000
Ar -4.843393e-01 0.000000e+00 0.000000e+00
1
Step 578000
Ar -6.204838e-01 0.000000e+00 0.000000e+00
1
Step 579000
Ar -6.034364e-01 0.000000e+00 0.000000e+00
1
Step 580000
Ar -3.586887e-01 0.000000e+00 0.000000e+00
1
Step 581000
Ar -6.905676e-01 0.000000e+00 0.000000e+00
1
Step 582000
Ar -6.605014e-01 0.000000e+00 0.000000e+00
1
Step 583000
Ar -7.049194e-01 0.000000e+00 0.000000e+00
1
Step 584000
Ar -7.081361e-01 0.000000e+00 0.000000e+00
1
Step 585000
Ar -7.296861e-01 0.000000e+00 0.000000e+00
1
Step 586000
Ar -6.958633e-01 0.000000e+00 0.000000e+00
1
Step 587000
Ar -6.844839e-01 0.000000e+00 0.000000e+00
1
Step 588000
Ar -7.060665e-01 0.000000e+00 0.000000e+00
1
Step 589000
Ar -6.766297e-01 0.000000e+00 0.000000e+00
1
Step 590000
Ar -6.758323e-01 0.000000e+00 0.000000e+00
1
Step 591000
Ar -8.886617e-01 0.000000e+00 0.000000e+00
1
Step 592000
Ar -9.392115e-01 0.000000e+00 0.000000e+00
1
Step 593000
Ar -9.253861e-01 0.000000e+00 0.000000e+00
1
Step 594000
Ar -7.310870e-01 0.000000e+00 0.000000e+00
1
Step 595000
Ar -9.294988e-01 0.000000e+00 0.000000e+00
1
Step 596000
Ar -1.008298e+00 0.000000e+00 0.000000e+00
1
Step 597000
Ar -1.020646e+00 0.000000e+00 0.000000e+00
1
Step 598000
Ar -9.969797e-01 0.000000e+00 0.000000e+00
1
Step 599000
Ar -1.004873e+00 0.000000e+00 0.000000e+00
1
Step 600000
Ar -1.003257e+00 0.000000e+00 0.000000e+00
1
Step 601000
Ar -1.041956e+00 0.000000e+00 0.000000e+00
1
Step 602000
Ar -9.869215e-01 0.000000e+00 0.000000e+00
1
Step 603000
Ar -1.007430e+00 0.000000e+00 0.000000e+00
1
Step 604000
Ar -1.056137e+00 0.000000e+00 0.000000e+00
1
Step 605000
Ar -1.016461e+00 0.000000e+00 0.000000e+00
1
Step 606000
Ar -6.967172e-01 0.000000e+00 0.000000e+00
1
Step 607000
Ar -6.893958e-01 0.000000e+00 0.000000e+00
1
Step 608000
Ar -6.976298e-01 0.000000e+00 0.000000e+00
1
Step 609000
Ar -5.443411e-01 0.000000e+00 0.000000e+00
1
Step 610000
Ar -5.029895e-01 0.000000e+00 0.000000e+00
1
Step 611000
Ar -5.776215e-01 0.000000e+00 0.000000e+00
1
Step 612000
Ar -5.644853e-01 0.000000e+00 0.000000e+00
1
Step 613000
Ar -5.793438e-01 0.000000e+00 0.000000e+00
1
Step 614000
Ar -5.470988e-01 0.000000e+00 0.000000e+00
1
Step 615000
Ar -5.321263e-01 0.000000e+00 0.000000e+00
1
Step 616000
Ar -5.189400e-01 0.000000e+00 0.000000e+00
1
Step 617000
Ar -5.223975e-01 0.000000e+00 0.000000e+00
1
Step 618000
Ar -5.213032e-01 0.000000e+00 0.000000e+00
1
Step 619000
Ar -5.179221e-01 0.000000e+00 0.000000e+00
1
Step 620000
Ar -5.222921e-01 0.000000e+00 0.000000e+00
1
Step 621000
Ar -7.646583e-01 0.000000e+00 0.000000e+00
1
Step 622000
Ar -7.622129e-01 0.000000e+00 0.000000e+00
1
Step 623000
Ar -7.629765e-01 0.000000e+00 0.000000e+00
1
Step 624000
Ar -9.107251e-01 0.000000e+00 0.000000e+00
1
Step 625000
Ar -7.843740e-01 0.000000e+00 0.000000e+00
1
Step 626000
Ar -6.094789e-01 0.000000e+00 0.000000e+00
1
Step 627000
Ar -5.818551e-01 0.000000e+00 0.000000e+00
1
Step 628000
Ar -6.123824e-01 0.000000e+00 0.000000e+00
1
Step 629000
Ar -6.041638e-01 0.000000e+00 0.000000e+00
1
Step 630000
Ar -5.522047e-01 0.000000e+00 0.000000e+00
1
Step 631000
Ar -6.055162e-01 0.000000e+00 0.000000e+00
1
Step 632000
Ar -6.013129e-01 0.000000e+00 0.000000e+00
1
Step 633000
Ar -5.806219e-01 0.000000e+00 0.000000e+00
1
Step 634000
Ar -5.787385e-01 0.000000e+00 0.000000e+00
1
Step 635000
Ar -5.803710e-01 0.000000e+00 0.000000e+00
1
Step 636000
Ar -6.236467e-01 0.000000e+00 0.000000e+00
1
Step 637000
Ar -5.946137e-01 0.000000e+00 0.000000e+00
1
Step 638000
Ar -6.151591e-01 0.000000e+00 0.000000e+00
1
Step 639000
Ar -6.301082e-01 0.000000e+00 0.000000e+00
1
Step 640000
Ar -6.312825e-01 0.000000e+00 0.000000e+00
1
Step 641000
Ar -6.182596e-01 0.000000e+00 0.000000e+00
1
Step 642000
Ar -5.987488e-01 0.000000e+00 0.000000e+00
1
Step 643000
Ar -6.184275e-01 0.000000e+00 0.000000e+00
1
Step 644000
Ar -6.171917e-01 0.000000e+00 0.000000e+00
1
Step 645000
Ar -6.090155e-01 0.000000e+00 0.000000e+00
1
Step 646000
Ar -5.906385e-01 0.000000e+00 0.000000e+00
1
Step 647000
Ar -5.919872e-01 0.000000e+00 0.000000e+00
1
Step 648000
Ar -8.035112e-01 0.000000e+00 0.000000e+00
1
Step 649000
Ar -8.100915e-01 0.000000e+00 0.000000e+00
1
Step 650000
Ar -8.118757e-01 0.000000e+00 0.000000e+00
1