1
Step 120000
Ar 1.114266e+00 0.000000e+00 0.000000e+00
1
Step 121000
Ar 9.847028e-01 0.000000e+00 0.000000e+00
1
Step 122000
Ar 9.256121e-01 0.000000e+00 0.000000e+00
1
Step 123000
Ar 8.791284e-01 0.000000e+00 0.000000e+00
1
Step 124000
Ar 1.123254e+00 0.000000e+00 0.000000e+00
1
Step 125000
Ar 1.018825e+00 0.000000e+00 0.000000e+00
1
Step 126000
Ar 7.907332e-01 0.000000e+00 0.000000e+00
1
Step 127000
Ar 8.343074e-01 0.000000e+00 0.000000e+00
1
Step 128000
Ar 9.969325e-01 0.000000e+00 0.000000e+00
1
Step 129000
Ar 9.933039e-01 0.000000e+00 0.000000e+00
1
Step 130000
Ar 9.105991e-01 0.000000e+00 0.000000e+00
1
Step 131000
Ar 9.198753e-01 0.000000e+00 0.000000e+00
1
Step 132000
Ar 9.090969e-01 0.000000e+00 0.000000e+00
1
Step 133000
Ar 8.448796e-01 0.000000e+00 0.000000e+00
1
Step 134000
Ar 8.435936e-01 0.000000e+00 0.000000e+00
1
Step 135000
Ar 9.021050e-01 0.000000e+00 0.000000e+00
1
Step 136000
Ar 8.529416e-01 0.000000e+00 0.000000e+00
1
Step 137000
Ar 8.617209e-01 0.000000e+00 0.000000e+00
1
Step 138000
Ar 8.344837e-01 0.000000e+00 0.000000e+00
1
Step 139000
Ar 8.258786e-01 0.000000e+00 0.000000e+00
1
Step 140000
Ar 8.916040e-01 0.000000e+00 0.000000e+00
1
Step 141000
Ar 8.525194e-01 0.000000e+00 0.000000e+00
1
Step 142000
Ar 1.004314e+00 0.000000e+00 0.000000e+00
1
Step 143000
Ar 9.835304e-01 0.000000e+00 0.000000e+00
1
Step 144000
Ar 9.866880e-01 0.000000e+00 0.000000e+00
1
Step 145000
Ar 9.913551e-01 0.000000e+00 0.000000e+00
1
Step 146000
Ar 1.005654e+00 0.000000e+00 0.000000e+00
1
Step 147000
Ar 9.954196e-01 0.000000e+00 0.000000e+00
1
Step 148000
Ar 9.549348e-01 0.000000e+00 0.000000e+00
1
Step 149000
Ar 1.007432e+00 0.000000e+00 0.000000e+00
1
Step 150000
Ar 5.325461e-01 0.000000e+00 0.000000e+00
1
Step 151000
Ar 7.585910e-01 0.000000e+00 0.000000e+00
1
Step 152000
Ar 7.554352e-01 0.000000e+00 0.000000e+00
1
Step 153000
Ar 7.460964e-01 0.000000e+00 0.000000e+00
1
Step 154000
Ar 7.605002e-01 0.000000e+00 0.000000e+00
1
Step 155000
Ar 6.939646e-01 0.000000e+00 0.000000e+00
1
Step 156000
Ar 6.724243e-01 0.000000e+00 0.000000e+00
1
Step 157000
Ar 1.700887e-01 0.000000e+00 0.000000e+00
1
Step 158000
Ar 4.191899e-01 0.000000e+00 0.000000e+00
1
Step 159000
Ar 7.565532e-01 0.000000e+00 0.000000e+00
1
Step 160000
Ar 7.636271e-01 0.000000e+00 0.000000e+00
1
Step 161000
Ar 7.658423e-01 0.000000e+00 0.000000e+00
1
Step 162000
Ar 7.568691e-01 0.000000e+00 0.000000e+00
1
Step 163000
Ar 7.468593e-01 0.000000e+00 0.000000e+00
1
Step 164000
Ar 7.468222e-01 0.000000e+00 0.000000e+00
1
Step 165000
Ar 1.056969e+00 0.000000e+00 0.000000e+00
1
Step 166000
Ar 1.125745e+00 0.000000e+00 0.000000e+00
1
Step 167000
Ar 1.098873e+00 0.000000e+00 0.000000e+00
1
Step 168000
Ar 1.144550e+00 0.000000e+00 0.000000e+00
1
Step 169000
Ar 1.101504e+00 0.000000e+00 0.000000e+00
1
Step 170000
Ar 1.132100e+00 0.000000e+00 0.000000e+00
1
Step 171000
Ar 1.114466e+00 0.000000e+00 0.000000e+00
1
Step 172000
Ar 1.048187e+00 0.000000e+00 0.000000e+00
1
Step 173000
Ar 1.045136e+00 0.000000e+00 0.000000e+00
1
Step 174000
Ar 1.035932e+00 0.000000e+00 0.000000e+00
1
Step 175000
Ar 1.063631e+00 0.000000e+00 0.000000e+00
1
Step 176000
Ar 1.038611e+00 0.000000e+00 0.000000e+00
1
Step 177000
Ar 1.062644e+00 0.000000e+00 0.000000e+00
1
Step 178000
Ar 1.037462e+00 0.000000e+00 0.000000e+00
1
Step 179000
Ar 1.047950e+00 0.000000e+00 0.000000e+00
1
Step 180000
Ar 1.072882e+00 0.000000e+00 0.000000e+00
1
Step 181000
Ar 1.038005e+00 0.000000e+00 0.000000e+00
1
Step 182000
Ar 1.050332e+00 0.000000e+00 0.000000e+00
1
Step 183000
Ar 1.036023e+00 0.000000e+00 0.000000e+00
1
Step 184000
Ar 1.050919e+00 0.000000e+00 0.000000e+00
1
Step 185000
Ar 1.055265e+00 0.000000e+00 0.000000e+00
1
Step 186000
Ar 1.068191e+00 0.000000e+00 0.000000e+00
1
Step 187000
Ar 1.055892e+00 0.000000e+00 0.000000e+00
1
Step 188000
Ar 1.037659e+00 0.000000e+00 0.000000e+00
1
Step 189000
Ar 1.064549e+00 0.000000e+00 0.000000e+00
1
Step 190000
Ar 1.062981e+00 0.000000e+00 0.000000e+00
1
Step 191000
Ar 1.104889e+00 0.000000e+00 0.000000e+00
1
Step 192000
Ar 1.101346e+00 0.000000e+00 0.000000e+00
1
Step 193000
Ar 1.108437e+00 0.000000e+00 0.000000e+00
1
Step 194000
Ar 1.117659e+00 0.000000e+00 0.000000e+00
1
Step 195000
Ar 1.102796e+00 0.000000e+00 0.000000e+00
1
Step 196000
Ar 1.109152e+00 0.000000e+00 0.000000e+00
1
Step 197000
Ar 1.120763e+00 0.000000e+00 0.000000e+00
1
Step 198000
Ar 1.118366e+00 0.000000e+00 0.000000e+00
1
Step 199000
Ar 1.098604e+00 0.000000e+00 0.000000e+00
1
Step 200000
Ar 1.099563e+00 0.000000e+00 0.000000e+00
1
Step 201000
Ar 1.110440e+00 0.000000e+00 0.000000e+00
1
Step 202000
Ar 1.103434e+00 0.000000e+00 0.000000e+00
1
Step 203000
Ar 1.125781e+00 0.000000e+00 0.000000e+00
1
Step 204000
Ar 1.026281e+00 0.000000e+00 0.000000e+00
1
Step 205000
Ar 1.188387e+00 0.000000e+00 0.000000e+00
1
Step 206000
Ar 1.208170e+00 0.000000e+00 0.000000e+00
1
Step 207000
Ar 1.202511e+00 0.000000e+00 0.000000e+00
1
Step 208000
Ar 1.226488e+00 0.000000e+00 0.000000e+00
1
Step 209000
Ar 1.180747e+00 0.000000e+00 0.000000e+00
1
Step 210000
Ar 1.189038e+00 0.000000e+00 0.000000e+00
1
Step 211000
Ar 1.178503e+00 0.000000e+00 0.000000e+00
1
Step 212000
Ar 1.205671e+00 0.000000e+00 0.000000e+00
1
Step 213000
Ar 1.183839e+00 0.000000e+00 0.000000e+00
1
Step 214000
Ar 1.194220e+00 0.000000e+00 0.000000e+00
1
Step 215000
Ar 1.219840e+00 0.000000e+00 0.000000e+00
1
Step 216000
Ar 1.277602e+00 0.000000e+00 0.000000e+00
1
Step 217000
Ar 1.201527e+00 0.000000e+00 0.000000e+00
1
Step 218000
Ar 1.204444e+00 0.000000e+00 0.000000e+00
1
Step 219000
Ar 1.236413e+00 0.000000e+00 0.000000e+00
1
Step 220000
Ar 1.243695e+00 0.000000e+00 0.000000e+00
1
Step 221000
Ar 1.271405e+00 0.000000e+00 0.000000e+00
1
Step 222000
Ar 1.239834e+00 0.000000e+00 0.000000e+00
1
Step 223000
Ar 1.239486e+00 0.000000e+00 0.000000e+00
1
Step 224000
Ar 1.297126e+00 0.000000e+00 0.000000e+00
1
Step 225000
Ar 1.336723e+00 0.000000e+00 0.000000e+00
1
Step 226000
Ar 1.234972e+00 0.000000e+00 0.000000e+00
1
Step 227000
Ar 1.250016e+00 0.000000e+00 0.000000e+00
1
Step 228000
Ar 1.264381e+00 0.000000e+00 0.000000e+00
1
Step 229000
Ar 1.312944e+00 0.000000e+00 0.000000e+00
1
Step 230000
Ar 1.325281e+00 0.000000e+00 0.000000e+00
1
Step 231000
Ar 1.287280e+00 0.000000e+00 0.000000e+00
1
Step 232000
Ar 1.291323e+00 0.000000e+00 0.000000e+00
1
Step 233000
Ar 1.289278e+00 0.000000e+00 0.000000e+00
1
Step 234000
Ar 1.289988e+00 0.000000e+00 0.000000e+00
1
Step 235000
Ar 1.297822e+00 0.000000e+00 0.000000e+00
1
Step 236000
Ar 1.322913e+00 0.000000e+00 0.000000e+00
1
Step 237000
Ar 1.343506e+00 0.000000e+00 0.000000e+00
1
Step 238000
Ar 1.130025e+00 0.000000e+00 0.000000e+00
1
Step 239000
Ar 1.108999e+00 0.000000e+00 0.000000e+00
1
Step 240000
Ar 8.504629e-01 0.000000e+00 0.000000e+00
1
Step 241000
Ar 8.641701e-01 0.000000e+00 0.000000e+00
1
Step 242000
Ar 8.658701e-01 0.000000e+00 0.000000e+00
1
Step 243000
Ar 8.659907e-01 0.000000e+00 0.000000e+00
1
Step 244000
Ar 8.676937e-01 0.000000e+00 0.000000e+00
1
Step 245000
Ar 8.520472e-01 0.000000e+00 0.000000e+00
1
Step 246000
Ar 8.604540e-01 0.000000e+00 0.000000e+00
1
Step 247000
Ar 8.566865e-01 0.000000e+00 0.000000e+00
1
Step 248000
Ar 8.627376e-01 0.000000e+00 0.000000e+00
1
Step 249000
Ar 8.574432e-01 0.000000e+00 0.000000e+00
1
Step 250000
Ar 8.689625e-01 0.000000e+00 0.000000e+00
1
Step 251000
Ar 8.664381e-01 0.000000e+00 0.000000e+00
1
Step 252000
Ar 8.716104e-01 0.000000e+00 0.000000e+00
1
Step 253000
Ar 8.559912e-01 0.000000e+00 0.000000e+00
1
Step 254000
Ar 8.524380e-01 0.000000e+00 0.000000e+00
1
Step 255000
Ar 8.515422e-01 0.000000e+00 0.000000e+00
1
Step 256000
Ar 8.755350e-01 0.000000e+00 0.000000e+00
1
Step 257000
Ar 8.658553e-01 0.000000e+00 0.000000e+00
1
Step 258000
Ar 8.757042e-01 0.000000e+00 0.000000e+00
1
Step 259000
Ar 9.593590e-01 0.000000e+00 0.000000e+00
1
Step 260000
Ar 9.601878e-01 0.000000e+00 0.000000e+00
1
Step 261000
Ar 9.597887e-01 0.000000e+00 0.000000e+00
1
Step 262000
Ar 9.605425e-01 0.000000e+00 0.000000e+00
1
Step 263000
Ar 9.849215e-01 0.000000e+00 0.000000e+00
1
Step 264000
Ar 9.821148e-01 0.000000e+00 0.000000e+00
1
Step 265000
Ar 9.904146e-01 0.000000e+00 0.000000e+00
1
Step 266000
Ar 9.848443e-01 0.000000e+00 0.000000e+00
1
Step 267000
Ar 9.856849e-01 0.000000e+00 0.000000e+00
1
Step 268000
Ar 9.856436e-01 0.000000e+00 0.000000e+00
1
Step 269000
Ar 9.868897e-01 0.000000e+00 0.000000e+00
1
Step 270000
Ar 9.860399e-01 0.000000e+00 0.000000e+00
1
Step 271000
Ar 9.858212e-01 0.000000e+00 0.000000e+00
1
Step 272000
Ar 9.884403e-01 0.000000e+00 0.000000e+00
1
Step 273000
Ar 9.874697e-01 0.000000e+00 0.000000e+00
1
Step 274000
Ar 9.888659e-01 0.000000e+00 0.000000e+00
1
Step 275000
Ar 9.847879e-01 0.000000e+00 0.000000e+00
1
Step 276000
Ar 9.868644e-01 0.000000e+00 0.000000e+00
1
Step 277000
Ar 9.856998e-01 0.000000e+00 0.000000e+00
1
Step 278000
Ar 1.206333e+00 0.000000e+00 0.000000e+00
1
Step 279000
Ar 1.193370e+00 0.000000e+00 0.000000e+00
1
Step 280000
Ar 1.366310e+00 0.000000e+00 0.000000e+00
1
Step 281000
Ar 1.349148e+00 0.000000e+00 0.000000e+00
1
Step 282000
Ar 1.346971e+00 0.000000e+00 0.000000e+00
1
Step 283000
Ar 1.345370e+00 0.000000e+00 0.000000e+00
1
Step 284000
Ar 1.381874e+00 0.000000e+00 0.000000e+00
1
Step 285000
Ar 1.360973e+00 0.000000e+00 0.000000e+00
1
Step 286000
Ar 1.352099e+00 0.000000e+00 0.000000e+00
1
Step 287000
Ar 1.361807e+00 0.000000e+00 0.000000e+00
1
Step 288000
Ar 1.341852e+00 0.000000e+00 0.000000e+00
1
Step 289000
Ar 1.364211e+00 0.000000e+00 0.000000e+00
1
Step 290000
Ar 1.364931e+00 0.000000e+00 0.000000e+00
1
Step 291000
Ar 1.360299e+00 0.000000e+00 0.000000e+00
1
Step 292000
Ar 1.381263e+00 0.000000e+00 0.000000e+00
1
Step 293000
Ar 1.414791e+00 0.000000e+00 0.000000e+00
1
Step 294000
Ar 1.475752e+00 0.000000e+00 0.000000e+00
1
Step 295000
Ar 1.448137e+00 0.000000e+00 0.000000e+00
1
Step 296000
Ar 1.459488e+00 0.000000e+00 0.000000e+00
1
Step 297000
Ar 1.481070e+00 0.000000e+00 0.000000e+00
1
Step 298000
Ar 1.491890e+00 0.000000e+00 0.000000e+00
1
Step 299000
Ar 1.456300e+00 0.000000e+00 0.000000e+00
1
Step 300000
Ar 1.508662e+00 0.000000e+00 0.000000e+00
1
Step 301000
Ar 1.525870e+00 0.000000e+00 0.000000e+00
1
Step 302000
Ar 1.516395e+00 0.000000e+00 0.000000e+00
1
Step 303000
Ar 1.522449e+00 0.000000e+00 0.000000e+00
1
Step 304000
Ar 1.515824e+00 0.000000e+00 0.000000e+00
1
Step 305000
Ar 1.520242e+00 0.000000e+00 0.000000e+00
1
Step 306000
Ar 1.540647e+00 0.000000e+00 0.000000e+00
1
Step 307000
Ar 1.554406e+00 0.000000e+00 0.000000e+00
1
Step 308000
Ar 1.535097e+00 0.000000e+00 0.000000e+00
1
Step 309000
Ar 1.210026e+00 0.000000e+00 0.000000e+00
1
Step 310000
Ar 1.204484e+00 0.000000e+00 0.000000e+00
1
Step 311000
Ar 1.285115e+00 0.000000e+00 0.000000e+00
1
Step 312000
Ar 1.287470e+00 0.000000e+00 0.000000e+00
1
Step 313000
Ar 1.282410e+00 0.000000e+00 0.000000e+00
1
Step 314000
Ar 1.254625e+00 0.000000e+00 0.000000e+00
1
Step 315000
Ar 1.255765e+00 0.000000e+00 0.000000e+00
1
Step 316000
Ar 1.245803e+00 0.000000e+00 0.000000e+00
1
Step 317000
Ar 1.246737e+00 0.000000e+00 0.000000e+00
1
Step 318000
Ar 1.252840e+00 0.000000e+00 0.000000e+00
1
Step 319000
Ar 1.243705e+00 0.000000e+00 0.000000e+00
1
Step 320000
Ar 1.243293e+00 0.000000e+00 0.000000e+00
1
Step 321000
Ar 1.346245e+00 0.000000e+00 0.000000e+00
1
Step 322000
Ar 1.320495e+00 0.000000e+00 0.000000e+00
1
Step 323000
Ar 1.309837e+00 0.000000e+00 0.000000e+00
1
Step 324000
Ar -1.015702e+00 0.000000e+00 0.000000e+00
1
Step 325000
Ar -1.006928e+00 0.000000e+00 0.000000e+00
1
Step 326000
Ar -9.831088e-01 0.000000e+00 0.000000e+00
1
Step 327000
Ar -8.564584e-01 0.000000e+00 0.000000e+00
1
Step 328000
Ar -8.961753e-01 0.000000e+00 0.000000e+00
1
Step 329000
Ar -9.762329e-01 0.000000e+00 0.000000e+00
1
Step 330000
Ar -8.549574e-01 0.000000e+00 0.000000e+00
1
Step 331000
Ar -9.275250e-01 0.000000e+00 0.000000e+00
1
Step 332000
Ar -9.836506e-01 0.000000e+00 0.000000e+00
1
Step 333000
Ar -9.739188e-01 0.000000e+00 0.000000e+00
1
Step 334000
Ar -7.395500e-01 0.000000e+00 0.000000e+00
1
Step 335000
Ar -8.154869e-01 0.000000e+00 0.000000e+00
1
Step 336000
Ar -1.041133e+00 0.000000e+00 0.000000e+00
1
Step 337000
Ar -1.064151e+00 0.000000e+00 0.000000e+00
1
Step 338000
Ar -1.079444e+00 0.000000e+00 0.000000e+00
1
Step 339000
Ar -1.255319e+00 0.000000e+00 0.000000e+00
1
Step 340000
Ar -1.141120e+00 0.000000e+00 0.000000e+00
1
Step 341000
Ar -1.111199e+00 0.000000e+00 0.000000e+00
1
Step 342000
Ar -1.187534e+00 0.000000e+00 0.000000e+00
1
Step 343000
Ar -1.209160e+00 0.000000e+00 0.000000e+00
1
Step 344000
Ar -1.130821e+00 0.000000e+00 0.000000e+00
1
Step 345000
Ar -1.126279e+00 0.000000e+00 0.000000e+00
1
Step 346000
Ar -1.142876e+00 0.000000e+00 0.000000e+00
1
Step 347000
Ar -1.220004e+00 0.000000e+00 0.000000e+00
1
Step 348000
Ar -1.196825e+00 0.000000e+00 0.000000e+00
1
Step 349000
Ar -1.239312e+00 0.000000e+00 0.000000e+00
1
Step 350000
Ar -1.332177e+00 0.000000e+00 0.000000e+00
1
Step 351000
Ar -1.251427e+00 0.000000e+00 0.000000e+00
1
Step 352000
Ar -1.254435e+00 0.000000e+00 0.000000e+00
1
Step 353000
Ar -1.353990e+00 0.000000e+00 0.000000e+00
1
Step 354000
Ar -1.360838e+00 0.000000e+00 0.000000e+00
1
Step 355000
Ar -1.362590e+00 0.000000e+00 0.000000e+00
1
Step 356000
Ar -1.359923e+00 0.000000e+00 0.000000e+00
1
Step 357000
Ar -1.412949e+00 0.000000e+00 0.000000e+00
1
Step 358000
Ar -1.308843e+00 0.000000e+00 0.000000e+00
1
Step 359000
Ar -1.280651e+00 0.000000e+00 0.000000e+00
1
Step 360000
Ar -1.325145e+00 0.000000e+00 0.000000e+00
1
Step 361000
Ar -1.305730e+00 0.000000e+00 0.000000e+00
1
Step 362000
Ar -1.291869e+00 0.000000e+00 0.000000e+00
1
Step 363000
Ar -1.255879e+00 0.000000e+00 0.000000e+00
1
Step 364000
Ar -1.280857e+00 0.000000e+00 0.000000e+00
1
Step 365000
Ar -1.298409e+00 0.000000e+00 0.000000e+00
1
Step 366000
Ar -8.698516e-01 0.000000e+00 0.000000e+00
1
Step 367000
Ar -9.799001e-01 0.000000e+00 0.000000e+00
1
Step 368000
Ar -8.688367e-01 0.000000e+00 0.000000e+00
1
Step 369000
Ar -9.407328e-01 0.000000e+00 0.000000e+00
1
Step 370000
Ar -6.704265e-01 0.000000e+00 0.000000e+00
1
Step 371000
Ar -8.539288e-01 0.000000e+00 0.000000e+00
1
Step 372000
Ar -8.882876e-01 0.000000e+00 0.000000e+00
1
Step 373000
Ar -7.749134e-01 0.000000e+00 0.000000e+00
1
Step 374000
Ar -8.845255e-01 0.000000e+00 0.000000e+00
1
Step 375000
Ar -9.097585e-01 0.000000e+00 0.000000e+00
1
Step 376000
Ar -8.989369e-01 0.000000e+00 0.000000e+00
1
Step 377000
Ar -9.121823e-01 0.000000e+00 0.000000e+00
1
Step 378000
Ar -8.479050e-01 0.000000e+00 0.000000e+00
1
Step 379000
Ar -9.163520e-01 0.000000e+00 0.000000e+00
1
Step 380000
Ar -6.324063e-01 0.000000e+00 0.000000e+00
1
Step 381000
Ar -8.572009e-01 0.000000e+00 0.000000e+00
1
Step 382000
Ar -8.133967e-01 0.000000e+00 0.000000e+00
1
Step 383000
Ar -8.563844e-01 0.000000e+00 0.000000e+00
1
Step 384000
Ar -6.766812e-01 0.000000e+00 0.000000e+00
1
Step 385000
Ar -8.310662e-01 0.000000e+00 0.000000e+00
1
Step 386000
Ar -8.338230e-01 0.000000e+00 0.000000e+00
1
Step 387000
Ar -6.599515e-01 0.000000e+00 0.000000e+00
1
Step 388000
Ar -7.682350e-01 0.000000e+00 0.000000e+00
1
Step 389000
Ar -8.344936e-01 0.000000e+00 0.000000e+00
1
Step 390000
Ar -7.906838e-01 0.000000e+00 0.000000e+00
1
Step 391000
Ar -8.000299e-01 0.000000e+00 0.000000e+00
1
Step 392000
Ar -8.454624e-01 0.000000e+00 0.000000e+00
1
Step 393000
Ar -8.380663e-01 0.000000e+00 0.000000e+00
1
Step 394000
Ar -7.756685e-01 0.000000e+00 0.000000e+00
1
Step 395000
Ar -1.192714e+00 0.000000e+00 0.000000e+00
1
Step 396000
Ar -1.123223e+00 0.000000e+00 0.000000e+00
1
Step 397000
Ar -1.120628e+00 0.000000e+00 0.000000e+00
1
Step 398000
Ar -1.127869e+00 0.000000e+00 0.000000e+00
1
Step 399000
Ar -1.120361e+00 0.000000e+00 0.000000e+00
1
Step 400000
Ar -1.113294e+00 0.000000e+00 0.000000e+00
1
Step 401000
Ar -1.115831e+00 0.000000e+00 0.000000e+00
1
Step 402000
Ar -1.131856e+00 0.000000e+00 0.000000e+00
1
Step 403000
Ar -1.065665e+00 0.000000e+00 0.000000e+00
1
Step 404000
Ar -1.049875e+00 0.000000e+00 0.000000e+00
1
Step 405000
Ar -1.046218e+00 0.000000e+00 0.000000e+00
1
Step 406000
Ar -1.057094e+00 0.000000e+00 0.000000e+00
1
Step 407000
Ar -9.943304e-01 0.000000e+00 0.000000e+00
1
Step 408000
Ar -1.023189e+00 0.000000e+00 0.000000e+00
1
Step 409000
Ar -1.007305e+00 0.000000e+00 0.000000e+00
1
Step 410000
Ar -1.022692e+00 0.000000e+00 0.000000e+00
1
Step 411000
Ar -9.934917e-01 0.000000e+00 0.000000e+00
1
Step 412000
Ar -9.994081e-01 0.000000e+00 0.000000e+00
1
Step 413000
Ar -9.845862e-01 0.000000e+00 0.000000e+00
1
Step 414000
Ar -9.863752e-01 0.000000e+00 0.000000e+00
1
Step 415000
Ar -9.497967e-01 0.000000e+00 0.000000e+00
1
Step 416000
Ar -8.370613e-01 0.000000e+00 0.000000e+00
1
Step 417000
Ar -1.353100e+00 0.000000e+00 0.000000e+00
1
Step 418000
Ar -1.351218e+00 0.000000e+00 0.000000e+00
1
Step 419000
Ar -1.354179e+00 0.000000e+00 0.000000e+00
1
Step 420000
Ar -1.351969e+00 0.000000e+00 0.000000e+00
1
Step 421000
Ar -1.357157e+00 0.000000e+00 0.000000e+00
1
Step 422000
Ar -1.331432e+00 0.000000e+00 0.000000e+00
1
Step 423000
Ar -1.330085e+00 0.000000e+00 0.000000e+00
1
Step 424000
Ar -1.233248e+00 0.000000e+00 0.000000e+00
1
Step 425000
Ar 4.381901e-01 0.000000e+00 0.000000e+00
1
Step 426000
Ar 3.736781e-01 0.000000e+00 0.000000e+00
1
Step 427000
Ar 4.568724e-01 0.000000e+00 0.000000e+00
1
Step 428000
Ar 4.122358e-01 0.000000e+00 0.000000e+00
1
Step 429000
Ar 4.087772e-01 0.000000e+00 0.000000e+00
1
Step 430000
Ar 3.881356e-01 0.000000e+00 0.000000e+00
1
Step 431000
Ar 4.564629e-01 0.000000e+00 0.000000e+00
1
Step 432000
Ar 4.387621e-01 0.000000e+00 0.000000e+00
1
Step 433000
Ar 4.374708e-01 0.000000e+00 0.000000e+00
1
Step 434000
Ar 3.591551e-02 0.000000e+00 0.000000e+00
1
Step 435000
Ar 4.055525e-01 0.000000e+00 0.000000e+00
1
Step 436000
Ar 4.306275e-01 0.000000e+00 0.000000e+00
1
Step 437000
Ar 4.713174e-01 0.000000e+00 0.000000e+00
1
Step 438000
Ar 4.204070e-01 0.000000e+00 0.000000e+00
1
Step 439000
Ar 4.542698e-01 0.000000e+00 0.000000e+00
1
Step 440000
Ar 3.919474e-01 0.000000e+00 0.000000e+00
1
Step 441000
Ar -7.496533e-01 0.000000e+00 0.000000e+00
1
Step 442000
Ar -6.476590e-01 0.000000e+00 0.000000e+00
1
Step 443000
Ar -7.754856e-01 0.000000e+00 0.000000e+00
1
Step 444000
Ar -7.716694e-01 0.000000e+00 0.000000e+00
1
Step 445000
Ar -7.109613e-01 0.000000e+00 0.000000e+00
1
Step 446000
Ar -7.779789e-01 0.000000e+00 0.000000e+00
1
Step 447000
Ar -7.785153e-01 0.000000e+00 0.000000e+00
1
Step 448000
Ar -7.763961e-01 0.000000e+00 0.000000e+00
1
Step 449000
Ar -7.780426e-01 0.000000e+00 0.000000e+00
1
Step 450000
Ar -7.696321e-01 0.000000e+00 0.000000e+00
1
Step 451000
Ar -8.134584e-01 0.000000e+00 0.000000e+00
1
Step 452000
Ar -8.141802e-01 0.000000e+00 0.000000e+00
1
Step 453000
Ar -8.167360e-01 0.000000e+00 0.000000e+00
1
Step 454000
Ar -8.118081e-01 0.000000e+00 0.000000e+00
1
Step 455000
Ar -8.235736e-01 0.000000e+00 0.000000e+00
1
Step 456000
Ar -8.198235e-01 0.000000e+00 0.000000e+00
1
Step 457000
Ar -8.047354e-01 0.000000e+00 0.000000e+00
1
Step 458000
Ar -8.202059e-01 0.000000e+00 0.000000e+00
1
Step 459000
Ar -8.151237e-01 0.000000e+00 0.000000e+00
1
Step 460000
Ar -8.213534e-01 0.000000e+00 0.000000e+00
1
Step 461000
Ar -8.093003e-01 0.000000e+00 0.000000e+00
1
Step 462000
Ar -8.093851e-01 0.000000e+00 0.000000e+00
1
Step 463000
Ar -8.126143e-01 0.000000e+00 0.000000e+00
1
Step 464000
Ar -8.134577e-01 0.000000e+00 0.000000e+00
1
Step 465000
Ar -8.141296e-01 0.000000e+00 0.000000e+00
1
Step 466000
Ar -8.076583e-01 0.000000e+00 0.000000e+00
1
Step 467000
Ar -9.083397e-01 0.000000e+00 0.000000e+00
1
Step 468000
Ar -9.087998e-01 0.000000e+00 0.000000e+00
1
Step 469000
Ar -9.050894e-01 0.000000e+00 0.000000e+00
1
Step 470000
Ar -8.996775e-01 0.000000e+00 0.000000e+00
1
Step 471000
Ar -8.770594e-01 0.000000e+00 0.000000e+00
1
Step 472000
Ar -8.798933e-01 0.000000e+00 0.000000e+00
1
Step 473000
Ar -8.735517e-01 0.000000e+00 0.000000e+00
1
Step 474000
Ar -8.767568e-01 0.000000e+00 0.000000e+00
1
Step 475000
Ar -8.793837e-01 0.000000e+00 0.000000e+00
1
Step 476000
Ar -8.773453e-01 0.000000e+00 0.000000e+00
1
Step 477000
Ar -8.539669e-01 0.000000e+00 0.000000e+00
1
Step 478000
Ar -8.524780e-01 0.000000e+00 0.000000e+00
1
Step 479000
Ar -8.467699e-01 0.000000e+00 0.000000e+00
1
Step 480000
Ar -8.485045e-01 0.000000e+00 0.000000e+00
1
Step 481000
Ar -8.448925e-01 0.000000e+00 0.000000e+00
1
Step 482000
Ar -6.032197e-01 0.000000e+00 0.000000e+00
1
Step 483000
Ar -6.780331e-01 0.000000e+00 0.000000e+00
1
Step 484000
Ar -7.274844e-01 0.000000e+00 0.000000e+00
1
Step 485000
Ar -7.190469e-01 0.000000e+00 0.000000e+00
1
Step 486000
Ar -6.407625e-01 0.000000e+00 0.000000e+00
1
Step 487000
Ar -7.039933e-01 0.000000e+00 0.000000e+00
1
Step 488000
Ar -6.736186e-01 0.000000e+00 0.000000e+00
1
Step 489000
Ar -6.272228e-01 0.000000e+00 0.000000e+00
1
Step 490000
Ar -6.300336e-01 0.000000e+00 0.000000e+00
1
Step 491000
Ar -3.480760e-01 0.000000e+00 0.000000e+00
1
Step 492000
Ar -6.588921e-01 0.000000e+00 0.000000e+00
1
Step 493000
Ar -7.449688e-01 0.000000e+00 0.000000e+00
1
Step 494000
Ar -7.270982e-01 0.000000e+00 0.000000e+00
1
Step 495000
Ar -7.449793e-01 0.000000e+00 0.000000e+00
1
Step 496000
Ar -7.487617e-01 0.000000e+00 0.000000e+00
1
Step 497000
Ar -7.404192e-01 0.000000e+00 0.000000e+00
1
Step 498000
Ar -7.016959e-01 0.000000e+00 0.000000e+00
1
Step 499000
Ar -7.034578e-01 0.000000e+00 0.000000e+00
1
Step 500000
Ar -7.014767e-01 0.000000e+00 0.000000e+00
1
Step 501000
Ar -7.011418e-01 0.000000e+00 0.000000e+00
1
Step 502000
Ar -7.001757e-01 0.000000e+00 0.000000e+00
1
Step 503000
Ar 3.863252e-01 0.000000e+00 0.000000e+00
1
Step 504000
Ar 4.013190e-01 0.000000e+00 0.000000e+00
1
Step 505000
Ar 4.206057e-01 0.000000e+00 0.000000e+00
1
Step 506000
Ar 1.198334e-01 0.000000e+00 0.000000e+00
1
Step 507000
Ar -1.134625e-02 0.000000e+00 0.000000e+00
1
Step 508000
Ar -5.276076e-01 0.000000e+00 0.000000e+00
1
Step 509000
Ar -6.316817e-01 0.000000e+00 0.000000e+00
1
Step 510000
Ar -6.032637e-01 0.000000e+00 0.000000e+00
1
Step 511000
Ar -5.246379e-01 0.000000e+00 0.000000e+00
1
Step 512000
Ar -4.008282e-01 0.000000e+00 0.000000e+00
1
Step 513000
Ar -5.978637e-01 0.000000e+00 0.000000e+00
1
Step 514000
Ar 3.213112e-01 0.000000e+00 0.000000e+00
1
Step 515000
Ar 3.590496e-01 0.000000e+00 0.000000e+00
1
Step 516000
Ar 4.065134e-01 0.000000e+00 0.000000e+00
1
Step 517000
Ar 4.562121e-01 0.000000e+00 0.000000e+00
1
Step 518000
Ar 3.331893e-01 0.000000e+00 0.000000e+00
1
Step 519000
Ar -6.397260e-01 0.000000e+00 0.000000e+00
1
Step 520000
Ar -5.723571e-01 0.000000e+00 0.000000e+00
1
Step 521000
Ar -6.422612e-01 0.000000e+00 0.000000e+00
1
Step 522000
Ar -5.272892e-01 0.000000e+00 0.000000e+00
1
Step 523000
Ar -5.936771e-01 0.000000e+00 0.000000e+00
1
Step 524000
Ar -5.733698e-01 0.000000e+00 0.000000e+00
1
Step 525000
Ar -5.175872e-01 0.000000e+00 0.000000e+00
1
Step 526000
Ar -3.786472e-01 0.000000e+00 0.000000e+00
1
Step 527000
Ar -5.319041e-01 0.000000e+00 0.000000e+00
1
Step 528000
Ar -5.163157e-01 0.000000e+00 0.000000e+00
1
Step 529000
Ar -6.011857e-01 0.000000e+00 0.000000e+00
1
Step 530000
Ar -5.661592e-01 0.000000e+00 0.000000e+00
1
Step 531000
Ar -5.765167e-01 0.000000e+00 0.000000e+00
1
Step 532000
Ar -6.019939e-01 0.000000e+00 0.000000e+00
1
Step 533000
Ar -3.303479e-01 0.000000e+00 0.000000e+00
1
Step 534000
Ar -5.345174e-01 0.000000e+00 0.000000e+00
1
Step 535000
Ar -4.373318e-01 0.000000e+00 0.000000e+00
1
Step 536000
Ar -3.888326e-01 0.000000e+00 0.000000e+00
1
Step 537000
Ar -5.314481e-01 0.000000e+00 0.000000e+00
1
Step 538000
Ar -5.304313e-01 0.000000e+00 0.000000e+00
1
Step 539000
Ar -5.043026e-01 0.000000e+00 0.000000e+00
1
Step 540000
Ar -3.758468e-01 0.000000e+00 0.000000e+00
1
Step 541000
Ar -4.829789e-01 0.000000e+00 0.000000e+00
1
Step 542000
Ar -4.130413e-01 0.000000e+00 0.000000e+00
1
Step 543000
Ar -4.840816e-01 0.000000e+00 0.000000e+00
1
Step 544000
Ar -6.050258e-01 0.000000e+00 0.000000e+00
1
Step 545000
Ar -5.733924e-01 0.000000e+00 0.000000e+00
1
Step 546000
Ar -5.790208e-01 0.000000e+00 0.000000e+00
1
Step 547000
Ar -6.317092e-01 0.000000e+00 0.000000e+00
1
Step 548000
Ar -6.349687e-01 0.000000e+00 0.000000e+00
1
Step 549000
Ar -6.290500e-01 0.000000e+00 0.000000e+00
1
Step 550000
Ar -6.288487e-01 0.000000e+00 0.000000e+00
1
Step 551000
Ar -6.364942e-01 0.000000e+00 0.000000e+00
1
Step 552000
Ar -6.372255e-01 0.000000e+00 0.000000e+00
1
Step 553000
Ar -6.280705e-01 0.000000e+00 0.000000e+00
1
Step 554000
Ar -6.386723e-01 0.000000e+00 0.000000e+00
1
Step 555000
Ar -6.327824e-01 0.000000e+00 0.000000e+00
1
Step 556000
Ar -6.307062e-01 0.000000e+00 0.000000e+00
1
Step 557000
Ar -6.314909e-01 0.000000e+00 0.000000e+00
1
Step 558000
Ar -6.391621e-01 0.000000e+00 0.000000e+00
1
Step 559000
Ar -6.295272e-01 0.000000e+00 0.000000e+00
1
Step 560000
Ar -6.400783e-01 0.000000e+00 0.000000e+00
1
Step 561000
Ar -5.754320e-01 0.000000e+00 0.000000e+00
1
Step 562000
Ar -5.760629e-01 0.000000e+00 0.000000e+00
1
Step 563000
Ar -5.797872e-01 0.000000e+00 0.000000e+00
1
Step 564000
Ar -5.784900e-01 0.000000e+00 0.000000e+00
1
Step 565000
Ar -5.825278e-01 0.000000e+00 0.000000e+00
1
Step 566000
Ar -5.756550e-01 0.000000e+00 0.000000e+00
1
Step 567000
Ar -5.711029e-01 0.000000e+00 0.000000e+00
1
Step 568000
Ar -5.709629e-01 0.000000e+00 0.000000e+00
1
Step 569000
Ar -5.780724e-01 0.000000e+00 0.000000e+00
1
Step 570000
Ar -5.760689e-01 0.000000e+00 0.000000e+00
1
Step 571000
Ar -5.770688e-01 0.000000e+00 0.000000e+00
1
Step 572000
Ar -5.822649e-01 0.000000e+00 0.000000e+00
1
Step 573000
Ar -5.768913e-01 0.000000e+00 0.000000e+00
1
Step 574000
Ar -5.777899e-01 0.000000e+00 0.000000e+00
1
Step 575000
Ar -5.701055e-01 0.000000e+00 0.000000e+00
1
Step 576000
Ar -5.731067e-01 0.000000e+00 0.000000e+00
1
Step 577000
Ar -5.731970e-01 0.000000e+00 0.000000e+00
1
Step 578000
Ar -5.808471e-01 0.000000e+00 0.000000e+00
1
Step 579000
Ar -5.788801e-01 0.000000e+00 0.000000e+00
1
Step 580000
Ar -5.748042e-01 0.000000e+00 0.000000e+00
1
Step 581000
Ar -5.801919e-01 0.000000e+00 0.000000e+00
1
Step 582000
Ar -5.830064e-01 0.000000e+00 0.000000e+00
1
Step 583000
Ar -5.797663e-01 0.000000e+00 0.000000e+00
1
Step 584000
Ar -5.462862e-01 0.000000e+00 0.000000e+00
1
Step 585000
Ar -5.515098e-01 0.000000e+00 0.000000e+00
1
Step 586000
Ar -5.452374e-01 0.000000e+00 0.000000e+00
1
Step 587000
Ar -5.512760e-01 0.000000e+00 0.000000e+00
1
Step 588000
Ar -5.428668e-01 0.000000e+00 0.000000e+00
1
Step 589000
Ar -6.266320e-01 0.000000e+00 0.000000e+00
1
Step 590000
Ar -4.919573e-01 0.000000e+00 0.000000e+00
1
Step 591000
Ar -3.303967e-02 0.000000e+00 0.000000e+00
1
Step 592000
Ar -3.143130e-01 0.000000e+00 0.000000e+00
1
Step 593000
Ar -4.959555e-01 0.000000e+00 0.000000e+00
1
Step 594000
Ar -4.257822e-01 0.000000e+00 0.000000e+00
1
Step 595000
Ar 1.263834e-01 0.000000e+00 0.000000e+00
1
Step 596000
Ar 4.095525e-01 0.000000e+00 0.000000e+00
1
Step 597000
Ar 4.195882e-01 0.000000e+00 0.000000e+00
1
Step 598000
Ar 4.563536e-01 0.000000e+00 0.000000e+00
1
Step 599000
Ar 4.470683e-01 0.000000e+00 0.000000e+00
1
Step 600000
Ar 4.233707e-01 0.000000e+00 0.000000e+00
1
Step 601000
Ar 4.211563e-01 0.000000e+00 0.000000e+00
1
Step 602000
Ar 4.346968e-01 0.000000e+00 0.000000e+00
1
Step 603000
Ar 4.447354e-01 0.000000e+00 0.000000e+00
1
Step 604000
Ar 4.340594e-01 0.000000e+00 0.000000e+00
1
Step 605000
Ar 4.238062e-01 0.000000e+00 0.000000e+00
1
Step 606000
Ar 4.307622e-01 0.000000e+00 0.000000e+00
1
Step 607000
Ar 4.135295e-01 0.000000e+00 0.000000e+00
1
Step 608000
Ar 4.276838e-01 0.000000e+00 0.000000e+00
1
Step 609000
Ar 4.229139e-01 0.000000e+00 0.000000e+00
1
Step 610000
Ar 4.421286e-01 0.000000e+00 0.000000e+00
1
Step 611000
Ar 4.412718e-01 0.000000e+00 0.000000e+00
1
Step 612000
Ar 4.137624e-01 0.000000e+00 0.000000e+00
1
Step 613000
Ar 4.348082e-01 0.000000e+00 0.000000e+00
1
Step 614000
Ar 4.154125e-01 0.000000e+00 0.000000e+00
1
Step 615000
Ar 4.258129e-01 0.000000e+00 0.000000e+00
1
Step 616000
Ar 4.830940e-01 0.000000e+00 0.000000e+00
1
Step 617000
Ar 5.858663e-01 0.000000e+00 0.000000e+00
1
Step 618000
Ar 6.157650e-01 0.000000e+00 0.000000e+00
1
Step 619000
Ar 5.917138e-01 0.000000e+00 0.000000e+00
1
Step 620000
Ar 6.184432e-01 0.000000e+00 0.000000e+00
1
Step 621000
Ar 6.077912e-01 0.000000e+00 0.000000e+00
1
Step 622000
Ar 6.111327e-01 0.000000e+00 0.000000e+00
1
Step 623000
Ar 5.654801e-01 0.000000e+00 0.000000e+00
1
Step 624000
Ar 5.975464e-01 0.000000e+00 0.000000e+00
1
Step 625000
Ar 6.636108e-01 0.000000e+00 0.000000e+00
1
Step 626000
Ar 7.062222e-01 0.000000e+00 0.000000e+00
1
Step 627000
Ar 6.941659e-01 0.000000e+00 0.000000e+00
1
Step 628000
Ar 7.113975e-01 0.000000e+00 0.000000e+00
1
Step 629000
Ar 8.239529e-01 0.000000e+00 0.000000e+00
1
Step 630000
Ar 8.218519e-01 0.000000e+00 0.000000e+00
1
Step 631000
Ar 5.577142e-01 0.000000e+00 0.000000e+00
1
Step 632000
Ar 5.963345e-01 0.000000e+00 0.000000e+00
1
Step 633000
Ar 6.256705e-01 0.000000e+00 0.000000e+00
1
Step 634000
Ar 6.162550e-01 0.000000e+00 0.000000e+00
1
Step 635000
Ar 5.796548e-01 0.000000e+00 0.000000e+00
1
Step 636000
Ar 5.780023e-01 0.000000e+00 0.000000e+00
1
Step 637000
Ar 5.810766e-01 0.000000e+00 0.000000e+00
1
Step 638000
Ar 5.928475e-01 0.000000e+00 0.000000e+00
1
Step 639000
Ar 5.352396e-01 0.000000e+00 0.000000e+00
1
Step 640000
Ar 5.160239e-01 0.000000e+00 0.000000e+00
1
Step 641000
Ar 5.094763e-01 0.000000e+00 0.000000e+00
1
Step 642000
Ar 5.310232e-01 0.000000e+00 0.000000e+00
1
Step 643000
Ar 5.089997e-01 0.000000e+00 0.000000e+00
1
Step 644000
Ar 6.656241e-01 0.000000e+00 0.000000e+00
1
Step 645000
Ar 6.563862e-01 0.000000e+00 0.000000e+00
1
Step 646000
Ar 6.552362e-01 0.000000e+00 0.000000e+00
1
Step 647000
Ar 6.523902e-01 0.000000e+00 0.000000e+00
1
Step 648000
Ar 6.717181e-01 0.000000e+00 0.000000e+00
1
Step 649000
Ar 6.650854e-01 0.000000e+00 0.000000e+00
1
Step 650000
Ar 6.266265e-01 0.000000e+00 0.000000e+00
1
Step 651000