1
Step 120000
Ar 9.913566e-01 0.000000e+00 0.000000e+00
1
Step 121000
Ar 1.016628e+00 0.000000e+00 0.000000e+00
1
Step 122000
Ar 9.975134e-01 0.000000e+00 0.000000e+00
1
Step 123000
Ar 9.846084e-01 0.000000e+00 0.000000e+00
1
Step 124000
Ar 9.975389e-01 0.000000e+00 0.000000e+00
1
Step 125000
Ar 9.895946e-01 0.000000e+00 0.000000e+00
1
Step 126000
Ar 1.003085e+00 0.000000e+00 0.000000e+00
1
Step 127000
Ar 1.019211e+00 0.000000e+00 0.000000e+00
1
Step 128000
Ar 1.004693e+00 0.000000e+00 0.000000e+00
1
Step 129000
Ar 1.003488e+00 0.000000e+00 0.000000e+00
1
Step 130000
Ar 1.013345e+00 0.000000e+00 0.000000e+00
1
Step 131000
Ar 1.018443e+00 0.000000e+00 0.000000e+00
1
Step 132000
Ar 1.006982e+00 0.000000e+00 0.000000e+00
1
Step 133000
Ar 1.009467e+00 0.000000e+00 0.000000e+00
1
Step 134000
Ar 1.014530e+00 0.000000e+00 0.000000e+00
1
Step 135000
Ar 1.010525e+00 0.000000e+00 0.000000e+00
1
Step 136000
Ar 1.008887e+00 0.000000e+00 0.000000e+00
1
Step 137000
Ar 1.018839e+00 0.000000e+00 0.000000e+00
1
Step 138000
Ar 9.975820e-01 0.000000e+00 0.000000e+00
1
Step 139000
Ar 1.004263e+00 0.000000e+00 0.000000e+00
1
Step 140000
Ar 9.687030e-01 0.000000e+00 0.000000e+00
1
Step 141000
Ar 9.705659e-01 0.000000e+00 0.000000e+00
1
Step 142000
Ar 9.776902e-01 0.000000e+00 0.000000e+00
1
Step 143000
Ar 9.529415e-01 0.000000e+00 0.000000e+00
1
Step 144000
Ar 9.636008e-01 0.000000e+00 0.000000e+00
1
Step 145000
Ar 9.643909e-01 0.000000e+00 0.000000e+00
1
Step 146000
Ar 9.478296e-01 0.000000e+00 0.000000e+00
1
Step 147000
Ar 1.025328e+00 0.000000e+00 0.000000e+00
1
Step 148000
Ar 1.028981e+00 0.000000e+00 0.000000e+00
1
Step 149000
Ar 1.024652e+00 0.000000e+00 0.000000e+00
1
Step 150000
Ar 1.036905e+00 0.000000e+00 0.000000e+00
1
Step 151000
Ar 1.029110e+00 0.000000e+00 0.000000e+00
1
Step 152000
Ar 1.028497e+00 0.000000e+00 0.000000e+00
1
Step 153000
Ar 1.038306e+00 0.000000e+00 0.000000e+00
1
Step 154000
Ar 1.042456e+00 0.000000e+00 0.000000e+00
1
Step 155000
Ar 1.062027e+00 0.000000e+00 0.000000e+00
1
Step 156000
Ar 1.054250e+00 0.000000e+00 0.000000e+00
1
Step 157000
Ar 1.053996e+00 0.000000e+00 0.000000e+00
1
Step 158000
Ar 1.054631e+00 0.000000e+00 0.000000e+00
1
Step 159000
Ar 1.047090e+00 0.000000e+00 0.000000e+00
1
Step 160000
Ar 1.053549e+00 0.000000e+00 0.000000e+00
1
Step 161000
Ar 9.496304e-01 0.000000e+00 0.000000e+00
1
Step 162000
Ar 9.369578e-01 0.000000e+00 0.000000e+00
1
Step 163000
Ar 9.388692e-01 0.000000e+00 0.000000e+00
1
Step 164000
Ar 9.387204e-01 0.000000e+00 0.000000e+00
1
Step 165000
Ar 9.401063e-01 0.000000e+00 0.000000e+00
1
Step 166000
Ar 9.382483e-01 0.000000e+00 0.000000e+00
1
Step 167000
Ar 9.421659e-01 0.000000e+00 0.000000e+00
1
Step 168000
Ar 9.337358e-01 0.000000e+00 0.000000e+00
1
Step 169000
Ar 9.403867e-01 0.000000e+00 0.000000e+00
1
Step 170000
Ar 9.417585e-01 0.000000e+00 0.000000e+00
1
Step 171000
Ar 9.421482e-01 0.000000e+00 0.000000e+00
1
Step 172000
Ar 9.346070e-01 0.000000e+00 0.000000e+00
1
Step 173000
Ar 9.391008e-01 0.000000e+00 0.000000e+00
1
Step 174000
Ar 9.403837e-01 0.000000e+00 0.000000e+00
1
Step 175000
Ar 1.057549e+00 0.000000e+00 0.000000e+00
1
Step 176000
Ar 9.235657e-01 0.000000e+00 0.000000e+00
1
Step 177000
Ar 1.002922e+00 0.000000e+00 0.000000e+00
1
Step 178000
Ar 9.227481e-01 0.000000e+00 0.000000e+00
1
Step 179000
Ar 9.279675e-01 0.000000e+00 0.000000e+00
1
Step 180000
Ar 9.253274e-01 0.000000e+00 0.000000e+00
1
Step 181000
Ar 9.144417e-01 0.000000e+00 0.000000e+00
1
Step 182000
Ar 9.175067e-01 0.000000e+00 0.000000e+00
1
Step 183000
Ar 9.147623e-01 0.000000e+00 0.000000e+00
1
Step 184000
Ar 9.166728e-01 0.000000e+00 0.000000e+00
1
Step 185000
Ar 9.185811e-01 0.000000e+00 0.000000e+00
1
Step 186000
Ar 9.201863e-01 0.000000e+00 0.000000e+00
1
Step 187000
Ar 8.810242e-01 0.000000e+00 0.000000e+00
1
Step 188000
Ar 1.064775e+00 0.000000e+00 0.000000e+00
1
Step 189000
Ar 9.727295e-01 0.000000e+00 0.000000e+00
1
Step 190000
Ar 1.108724e+00 0.000000e+00 0.000000e+00
1
Step 191000
Ar 1.022494e+00 0.000000e+00 0.000000e+00
1
Step 192000
Ar 1.007249e+00 0.000000e+00 0.000000e+00
1
Step 193000
Ar 9.467908e-01 0.000000e+00 0.000000e+00
1
Step 194000
Ar 9.666047e-01 0.000000e+00 0.000000e+00
1
Step 195000
Ar 1.066131e+00 0.000000e+00 0.000000e+00
1
Step 196000
Ar 1.075266e+00 0.000000e+00 0.000000e+00
1
Step 197000
Ar 1.079487e+00 0.000000e+00 0.000000e+00
1
Step 198000
Ar 1.022862e+00 0.000000e+00 0.000000e+00
1
Step 199000
Ar 1.082297e+00 0.000000e+00 0.000000e+00
1
Step 200000
Ar 1.086024e+00 0.000000e+00 0.000000e+00
1
Step 201000
Ar 1.080041e+00 0.000000e+00 0.000000e+00
1
Step 202000
Ar 1.059817e+00 0.000000e+00 0.000000e+00
1
Step 203000
Ar 9.411360e-01 0.000000e+00 0.000000e+00
1
Step 204000
Ar 9.961224e-01 0.000000e+00 0.000000e+00
1
Step 205000
Ar 1.089575e+00 0.000000e+00 0.000000e+00
1
Step 206000
Ar 1.094032e+00 0.000000e+00 0.000000e+00
1
Step 207000
Ar 1.093077e+00 0.000000e+00 0.000000e+00
1
Step 208000
Ar 1.086998e+00 0.000000e+00 0.000000e+00
1
Step 209000
Ar 1.095504e+00 0.000000e+00 0.000000e+00
1
Step 210000
Ar 8.840763e-01 0.000000e+00 0.000000e+00
1
Step 211000
Ar 1.047226e+00 0.000000e+00 0.000000e+00
1
Step 212000
Ar 9.034963e-01 0.000000e+00 0.000000e+00
1
Step 213000
Ar 9.023442e-01 0.000000e+00 0.000000e+00
1
Step 214000
Ar 9.054183e-01 0.000000e+00 0.000000e+00
1
Step 215000
Ar 1.024116e+00 0.000000e+00 0.000000e+00
1
Step 216000
Ar 9.135786e-01 0.000000e+00 0.000000e+00
1
Step 217000
Ar 1.047241e+00 0.000000e+00 0.000000e+00
1
Step 218000
Ar 1.092662e+00 0.000000e+00 0.000000e+00
1
Step 219000
Ar 1.091317e+00 0.000000e+00 0.000000e+00
1
Step 220000
Ar 1.097887e+00 0.000000e+00 0.000000e+00
1
Step 221000
Ar 1.089599e+00 0.000000e+00 0.000000e+00
1
Step 222000
Ar 8.126717e-01 0.000000e+00 0.000000e+00
1
Step 223000
Ar 9.935749e-01 0.000000e+00 0.000000e+00
1
Step 224000
Ar 8.874659e-01 0.000000e+00 0.000000e+00
1
Step 225000
Ar 1.009612e+00 0.000000e+00 0.000000e+00
1
Step 226000
Ar 1.023508e+00 0.000000e+00 0.000000e+00
1
Step 227000
Ar 1.071191e+00 0.000000e+00 0.000000e+00
1
Step 228000
Ar 6.747591e-01 0.000000e+00 0.000000e+00
1
Step 229000
Ar 9.118138e-01 0.000000e+00 0.000000e+00
1
Step 230000
Ar 8.223926e-01 0.000000e+00 0.000000e+00
1
Step 231000
Ar 6.951516e-01 0.000000e+00 0.000000e+00
1
Step 232000
Ar 1.109268e+00 0.000000e+00 0.000000e+00
1
Step 233000
Ar 1.120885e+00 0.000000e+00 0.000000e+00
1
Step 234000
Ar 1.115547e+00 0.000000e+00 0.000000e+00
1
Step 235000
Ar 1.110883e+00 0.000000e+00 0.000000e+00
1
Step 236000
Ar 1.119739e+00 0.000000e+00 0.000000e+00
1
Step 237000
Ar 1.120647e+00 0.000000e+00 0.000000e+00
1
Step 238000
Ar 1.105174e+00 0.000000e+00 0.000000e+00
1
Step 239000
Ar 1.036647e+00 0.000000e+00 0.000000e+00
1
Step 240000
Ar 8.932878e-01 0.000000e+00 0.000000e+00
1
Step 241000
Ar 9.711147e-01 0.000000e+00 0.000000e+00
1
Step 242000
Ar 9.404790e-01 0.000000e+00 0.000000e+00
1
Step 243000
Ar 1.120297e+00 0.000000e+00 0.000000e+00
1
Step 244000
Ar 1.124118e+00 0.000000e+00 0.000000e+00
1
Step 245000
Ar 1.122798e+00 0.000000e+00 0.000000e+00
1
Step 246000
Ar 1.120026e+00 0.000000e+00 0.000000e+00
1
Step 247000
Ar 1.123697e+00 0.000000e+00 0.000000e+00
1
Step 248000
Ar 1.124878e+00 0.000000e+00 0.000000e+00
1
Step 249000
Ar 1.127459e+00 0.000000e+00 0.000000e+00
1
Step 250000
Ar 1.124323e+00 0.000000e+00 0.000000e+00
1
Step 251000
Ar 1.125285e+00 0.000000e+00 0.000000e+00
1
Step 252000
Ar 1.129484e+00 0.000000e+00 0.000000e+00
1
Step 253000
Ar 1.127300e+00 0.000000e+00 0.000000e+00
1
Step 254000
Ar 1.109024e+00 0.000000e+00 0.000000e+00
1
Step 255000
Ar 1.261696e+00 0.000000e+00 0.000000e+00
1
Step 256000
Ar 9.796974e-01 0.000000e+00 0.000000e+00
1
Step 257000
Ar 9.098553e-01 0.000000e+00 0.000000e+00
1
Step 258000
Ar 9.015485e-01 0.000000e+00 0.000000e+00
1
Step 259000
Ar 9.087368e-01 0.000000e+00 0.000000e+00
1
Step 260000
Ar 9.045305e-01 0.000000e+00 0.000000e+00
1
Step 261000
Ar 9.070708e-01 0.000000e+00 0.000000e+00
1
Step 262000
Ar 9.059143e-01 0.000000e+00 0.000000e+00
1
Step 263000
Ar 9.014182e-01 0.000000e+00 0.000000e+00
1
Step 264000
Ar 9.086721e-01 0.000000e+00 0.000000e+00
1
Step 265000
Ar 9.028440e-01 0.000000e+00 0.000000e+00
1
Step 266000
Ar 1.089356e+00 0.000000e+00 0.000000e+00
1
Step 267000
Ar 8.110144e-01 0.000000e+00 0.000000e+00
1
Step 268000
Ar 8.785056e-01 0.000000e+00 0.000000e+00
1
Step 269000
Ar 1.009746e+00 0.000000e+00 0.000000e+00
1
Step 270000
Ar 9.795099e-01 0.000000e+00 0.000000e+00
1
Step 271000
Ar 8.802372e-01 0.000000e+00 0.000000e+00
1
Step 272000
Ar 8.722497e-01 0.000000e+00 0.000000e+00
1
Step 273000
Ar 8.694396e-01 0.000000e+00 0.000000e+00
1
Step 274000
Ar 8.708407e-01 0.000000e+00 0.000000e+00
1
Step 275000
Ar 8.712958e-01 0.000000e+00 0.000000e+00
1
Step 276000
Ar 9.247465e-01 0.000000e+00 0.000000e+00
1
Step 277000
Ar 9.684586e-01 0.000000e+00 0.000000e+00
1
Step 278000
Ar 1.031505e+00 0.000000e+00 0.000000e+00
1
Step 279000
Ar 1.104456e+00 0.000000e+00 0.000000e+00
1
Step 280000
Ar 1.053417e+00 0.000000e+00 0.000000e+00
1
Step 281000
Ar 1.012776e+00 0.000000e+00 0.000000e+00
1
Step 282000
Ar 1.009163e+00 0.000000e+00 0.000000e+00
1
Step 283000
Ar 1.015708e+00 0.000000e+00 0.000000e+00
1
Step 284000
Ar 1.174099e+00 0.000000e+00 0.000000e+00
1
Step 285000
Ar 1.059377e+00 0.000000e+00 0.000000e+00
1
Step 286000
Ar 9.498201e-01 0.000000e+00 0.000000e+00
1
Step 287000
Ar 1.025165e+00 0.000000e+00 0.000000e+00
1
Step 288000
Ar 1.033190e+00 0.000000e+00 0.000000e+00
1
Step 289000
Ar 1.011481e+00 0.000000e+00 0.000000e+00
1
Step 290000
Ar 1.092152e+00 0.000000e+00 0.000000e+00
1
Step 291000
Ar 1.014270e+00 0.000000e+00 0.000000e+00
1
Step 292000
Ar 1.012635e+00 0.000000e+00 0.000000e+00
1
Step 293000
Ar 9.750353e-01 0.000000e+00 0.000000e+00
1
Step 294000
Ar 1.056675e+00 0.000000e+00 0.000000e+00
1
Step 295000
Ar 8.629082e-01 0.000000e+00 0.000000e+00
1
Step 296000
Ar 8.585721e-01 0.000000e+00 0.000000e+00
1
Step 297000
Ar 8.580473e-01 0.000000e+00 0.000000e+00
1
Step 298000
Ar 9.713424e-01 0.000000e+00 0.000000e+00
1
Step 299000
Ar 9.935184e-01 0.000000e+00 0.000000e+00
1
Step 300000
Ar 9.257137e-01 0.000000e+00 0.000000e+00
1
Step 301000
Ar 8.787612e-01 0.000000e+00 0.000000e+00
1
Step 302000
Ar 9.468735e-01 0.000000e+00 0.000000e+00
1
Step 303000
Ar 1.055005e+00 0.000000e+00 0.000000e+00
1
Step 304000
Ar 1.068130e+00 0.000000e+00 0.000000e+00
1
Step 305000
Ar 8.895818e-01 0.000000e+00 0.000000e+00
1
Step 306000
Ar 1.109478e+00 0.000000e+00 0.000000e+00
1
Step 307000
Ar 6.892926e-01 0.000000e+00 0.000000e+00
1
Step 308000
Ar 1.042065e+00 0.000000e+00 0.000000e+00
1
Step 309000
Ar 8.526241e-01 0.000000e+00 0.000000e+00
1
Step 310000
Ar 6.876621e-01 0.000000e+00 0.000000e+00
1
Step 311000
Ar 9.852149e-01 0.000000e+00 0.000000e+00
1
Step 312000
Ar 1.156726e+00 0.000000e+00 0.000000e+00
1
Step 313000
Ar 9.677443e-01 0.000000e+00 0.000000e+00
1
Step 314000
Ar 1.111610e+00 0.000000e+00 0.000000e+00
1
Step 315000
Ar 1.057768e+00 0.000000e+00 0.000000e+00
1
Step 316000
Ar 9.141164e-01 0.000000e+00 0.000000e+00
1
Step 317000
Ar 8.477329e-01 0.000000e+00 0.000000e+00
1
Step 318000
Ar 7.708349e-01 0.000000e+00 0.000000e+00
1
Step 319000
Ar 9.791446e-01 0.000000e+00 0.000000e+00
1
Step 320000
Ar 1.111774e+00 0.000000e+00 0.000000e+00
1
Step 321000
Ar 1.065306e+00 0.000000e+00 0.000000e+00
1
Step 322000
Ar 9.514397e-01 0.000000e+00 0.000000e+00
1
Step 323000
Ar 8.416887e-01 0.000000e+00 0.000000e+00
1
Step 324000
Ar 8.472792e-01 0.000000e+00 0.000000e+00
1
Step 325000
Ar 1.050198e+00 0.000000e+00 0.000000e+00
1
Step 326000
Ar 6.976156e-01 0.000000e+00 0.000000e+00
1
Step 327000
Ar 8.492717e-01 0.000000e+00 0.000000e+00
1
Step 328000
Ar 8.421893e-01 0.000000e+00 0.000000e+00
1
Step 329000
Ar 7.168542e-01 0.000000e+00 0.000000e+00
1
Step 330000
Ar 1.017677e+00 0.000000e+00 0.000000e+00
1
Step 331000
Ar 1.050313e+00 0.000000e+00 0.000000e+00
1
Step 332000
Ar 1.146070e+00 0.000000e+00 0.000000e+00
1
Step 333000
Ar 9.807068e-01 0.000000e+00 0.000000e+00
1
Step 334000
Ar 1.051138e+00 0.000000e+00 0.000000e+00
1
Step 335000
Ar 8.666506e-01 0.000000e+00 0.000000e+00
1
Step 336000
Ar 8.354168e-01 0.000000e+00 0.000000e+00
1
Step 337000
Ar 9.709937e-01 0.000000e+00 0.000000e+00
1
Step 338000
Ar 1.039797e+00 0.000000e+00 0.000000e+00
1
Step 339000
Ar 1.112042e+00 0.000000e+00 0.000000e+00
1
Step 340000
Ar 9.169644e-01 0.000000e+00 0.000000e+00
1
Step 341000
Ar 9.924315e-01 0.000000e+00 0.000000e+00
1
Step 342000
Ar 7.846428e-01 0.000000e+00 0.000000e+00
1
Step 343000
Ar 9.771143e-01 0.000000e+00 0.000000e+00
1
Step 344000
Ar 1.049890e+00 0.000000e+00 0.000000e+00
1
Step 345000
Ar 7.146862e-01 0.000000e+00 0.000000e+00
1
Step 346000
Ar 1.167979e+00 0.000000e+00 0.000000e+00
1
Step 347000
Ar 1.122169e+00 0.000000e+00 0.000000e+00
1
Step 348000
Ar 1.051152e+00 0.000000e+00 0.000000e+00
1
Step 349000
Ar 7.851436e-01 0.000000e+00 0.000000e+00
1
Step 350000
Ar 1.037851e+00 0.000000e+00 0.000000e+00
1
Step 351000
Ar 8.348234e-01 0.000000e+00 0.000000e+00
1
Step 352000
Ar 8.344099e-01 0.000000e+00 0.000000e+00
1
Step 353000
Ar 8.309244e-01 0.000000e+00 0.000000e+00
1
Step 354000
Ar 1.088393e+00 0.000000e+00 0.000000e+00
1
Step 355000
Ar 9.847346e-01 0.000000e+00 0.000000e+00
1
Step 356000
Ar 7.014252e-01 0.000000e+00 0.000000e+00
1
Step 357000
Ar 1.084793e+00 0.000000e+00 0.000000e+00
1
Step 358000
Ar 7.460128e-01 0.000000e+00 0.000000e+00
1
Step 359000
Ar 1.109924e+00 0.000000e+00 0.000000e+00
1
Step 360000
Ar 1.093921e+00 0.000000e+00 0.000000e+00
1
Step 361000
Ar 7.714606e-01 0.000000e+00 0.000000e+00
1
Step 362000
Ar 8.673369e-01 0.000000e+00 0.000000e+00
1
Step 363000
Ar 9.129190e-01 0.000000e+00 0.000000e+00
1
Step 364000
Ar 8.995693e-01 0.000000e+00 0.000000e+00
1
Step 365000
Ar 9.087532e-01 0.000000e+00 0.000000e+00
1
Step 366000
Ar 9.079545e-01 0.000000e+00 0.000000e+00
1
Step 367000
Ar 9.011562e-01 0.000000e+00 0.000000e+00
1
Step 368000
Ar 9.378605e-01 0.000000e+00 0.000000e+00
1
Step 369000
Ar 1.248998e+00 0.000000e+00 0.000000e+00
1
Step 370000
Ar 8.331623e-01 0.000000e+00 0.000000e+00
1
Step 371000
Ar 8.351519e-01 0.000000e+00 0.000000e+00
1
Step 372000
Ar 8.371880e-01 0.000000e+00 0.000000e+00
1
Step 373000
Ar 8.312783e-01 0.000000e+00 0.000000e+00
1
Step 374000
Ar 8.359061e-01 0.000000e+00 0.000000e+00
1
Step 375000
Ar 8.315759e-01 0.000000e+00 0.000000e+00
1
Step 376000
Ar 8.327969e-01 0.000000e+00 0.000000e+00
1
Step 377000
Ar 8.328254e-01 0.000000e+00 0.000000e+00
1
Step 378000
Ar 8.340139e-01 0.000000e+00 0.000000e+00
1
Step 379000
Ar 8.355482e-01 0.000000e+00 0.000000e+00
1
Step 380000
Ar 8.338500e-01 0.000000e+00 0.000000e+00
1
Step 381000
Ar 8.297853e-01 0.000000e+00 0.000000e+00
1
Step 382000
Ar 8.333609e-01 0.000000e+00 0.000000e+00
1
Step 383000
Ar 8.306977e-01 0.000000e+00 0.000000e+00
1
Step 384000
Ar 8.345957e-01 0.000000e+00 0.000000e+00
1
Step 385000
Ar 8.954325e-01 0.000000e+00 0.000000e+00
1
Step 386000
Ar 1.020825e+00 0.000000e+00 0.000000e+00
1
Step 387000
Ar 8.448707e-01 0.000000e+00 0.000000e+00
1
Step 388000
Ar 8.650831e-01 0.000000e+00 0.000000e+00
1
Step 389000
Ar 1.135508e+00 0.000000e+00 0.000000e+00
1
Step 390000
Ar 1.139688e+00 0.000000e+00 0.000000e+00
1
Step 391000
Ar 8.710552e-01 0.000000e+00 0.000000e+00
1
Step 392000
Ar 1.059991e+00 0.000000e+00 0.000000e+00
1
Step 393000
Ar 8.241931e-01 0.000000e+00 0.000000e+00
1
Step 394000
Ar 9.136353e-01 0.000000e+00 0.000000e+00
1
Step 395000
Ar 7.781224e-01 0.000000e+00 0.000000e+00
1
Step 396000
Ar 7.782632e-01 0.000000e+00 0.000000e+00
1
Step 397000
Ar 7.821591e-01 0.000000e+00 0.000000e+00
1
Step 398000
Ar 7.718109e-01 0.000000e+00 0.000000e+00
1
Step 399000
Ar 7.737542e-01 0.000000e+00 0.000000e+00
1
Step 400000
Ar 7.742356e-01 0.000000e+00 0.000000e+00
1
Step 401000
Ar 7.716979e-01 0.000000e+00 0.000000e+00
1
Step 402000
Ar 5.515068e-01 0.000000e+00 0.000000e+00
1
Step 403000
Ar 1.196657e+00 0.000000e+00 0.000000e+00
1
Step 404000
Ar 9.784837e-01 0.000000e+00 0.000000e+00
1
Step 405000
Ar 1.136799e+00 0.000000e+00 0.000000e+00
1
Step 406000
Ar 1.137877e+00 0.000000e+00 0.000000e+00
1
Step 407000
Ar 1.143895e+00 0.000000e+00 0.000000e+00
1
Step 408000
Ar 1.144620e+00 0.000000e+00 0.000000e+00
1
Step 409000
Ar 1.143673e+00 0.000000e+00 0.000000e+00
1
Step 410000
Ar 1.142279e+00 0.000000e+00 0.000000e+00
1
Step 411000
Ar 1.143843e+00 0.000000e+00 0.000000e+00
1
Step 412000
Ar 1.140140e+00 0.000000e+00 0.000000e+00
1
Step 413000
Ar 1.139837e+00 0.000000e+00 0.000000e+00
1
Step 414000
Ar 7.411342e-01 0.000000e+00 0.000000e+00
1
Step 415000
Ar 8.371177e-01 0.000000e+00 0.000000e+00
1
Step 416000
Ar 9.111525e-01 0.000000e+00 0.000000e+00
1
Step 417000
Ar 9.161588e-01 0.000000e+00 0.000000e+00
1
Step 418000
Ar 8.782639e-01 0.000000e+00 0.000000e+00
1
Step 419000
Ar 9.416746e-01 0.000000e+00 0.000000e+00
1
Step 420000
Ar 1.138589e+00 0.000000e+00 0.000000e+00
1
Step 421000
Ar 1.137076e+00 0.000000e+00 0.000000e+00
1
Step 422000
Ar 1.145188e+00 0.000000e+00 0.000000e+00
1
Step 423000
Ar 9.044886e-01 0.000000e+00 0.000000e+00
1
Step 424000
Ar 1.078334e+00 0.000000e+00 0.000000e+00
1
Step 425000
Ar 1.045869e+00 0.000000e+00 0.000000e+00
1
Step 426000
Ar 7.662135e-01 0.000000e+00 0.000000e+00
1
Step 427000
Ar 1.180628e+00 0.000000e+00 0.000000e+00
1
Step 428000
Ar 1.043531e+00 0.000000e+00 0.000000e+00
1
Step 429000
Ar 1.090643e+00 0.000000e+00 0.000000e+00
1
Step 430000
Ar 9.487527e-01 0.000000e+00 0.000000e+00
1
Step 431000
Ar 8.372556e-01 0.000000e+00 0.000000e+00
1
Step 432000
Ar 1.141805e+00 0.000000e+00 0.000000e+00
1
Step 433000
Ar 1.140526e+00 0.000000e+00 0.000000e+00
1
Step 434000
Ar 7.296801e-01 0.000000e+00 0.000000e+00
1
Step 435000
Ar 1.069254e+00 0.000000e+00 0.000000e+00
1
Step 436000
Ar 1.056883e+00 0.000000e+00 0.000000e+00
1
Step 437000
Ar 1.054642e+00 0.000000e+00 0.000000e+00
1
Step 438000
Ar 1.127905e+00 0.000000e+00 0.000000e+00
1
Step 439000
Ar 9.269281e-01 0.000000e+00 0.000000e+00
1
Step 440000
Ar 1.071103e+00 0.000000e+00 0.000000e+00
1
Step 441000
Ar 1.134393e+00 0.000000e+00 0.000000e+00
1
Step 442000
Ar 8.190127e-01 0.000000e+00 0.000000e+00
1
Step 443000
Ar 1.066489e+00 0.000000e+00 0.000000e+00
1
Step 444000
Ar 1.059741e+00 0.000000e+00 0.000000e+00
1
Step 445000
Ar 1.061963e+00 0.000000e+00 0.000000e+00
1
Step 446000
Ar 1.060691e+00 0.000000e+00 0.000000e+00
1
Step 447000
Ar 1.084361e+00 0.000000e+00 0.000000e+00
1
Step 448000
Ar 9.532360e-01 0.000000e+00 0.000000e+00
1
Step 449000
Ar 1.034784e+00 0.000000e+00 0.000000e+00
1
Step 450000
Ar 1.041085e+00 0.000000e+00 0.000000e+00
1
Step 451000
Ar 9.215431e-01 0.000000e+00 0.000000e+00
1
Step 452000
Ar 8.368889e-01 0.000000e+00 0.000000e+00
1
Step 453000
Ar 9.886093e-01 0.000000e+00 0.000000e+00
1
Step 454000
Ar 1.101320e+00 0.000000e+00 0.000000e+00
1
Step 455000
Ar 9.706206e-01 0.000000e+00 0.000000e+00
1
Step 456000
Ar 9.867883e-01 0.000000e+00 0.000000e+00
1
Step 457000
Ar 9.164811e-01 0.000000e+00 0.000000e+00
1
Step 458000
Ar 1.064016e+00 0.000000e+00 0.000000e+00
1
Step 459000
Ar 1.197030e+00 0.000000e+00 0.000000e+00
1
Step 460000
Ar 1.201233e+00 0.000000e+00 0.000000e+00
1
Step 461000
Ar 9.008720e-01 0.000000e+00 0.000000e+00
1
Step 462000
Ar 1.079291e+00 0.000000e+00 0.000000e+00
1
Step 463000
Ar 1.083394e+00 0.000000e+00 0.000000e+00
1
Step 464000
Ar 1.082652e+00 0.000000e+00 0.000000e+00
1
Step 465000
Ar 1.079940e+00 0.000000e+00 0.000000e+00
1
Step 466000
Ar 6.098565e-01 0.000000e+00 0.000000e+00
1
Step 467000
Ar 1.156986e+00 0.000000e+00 0.000000e+00
1
Step 468000
Ar 1.049374e+00 0.000000e+00 0.000000e+00
1
Step 469000
Ar 9.369074e-01 0.000000e+00 0.000000e+00
1
Step 470000
Ar 1.119679e+00 0.000000e+00 0.000000e+00
1
Step 471000
Ar 9.797695e-01 0.000000e+00 0.000000e+00
1
Step 472000
Ar 1.063089e+00 0.000000e+00 0.000000e+00
1
Step 473000
Ar 1.112445e+00 0.000000e+00 0.000000e+00
1
Step 474000
Ar 1.003978e+00 0.000000e+00 0.000000e+00
1
Step 475000
Ar 8.977025e-01 0.000000e+00 0.000000e+00
1
Step 476000
Ar 1.034750e+00 0.000000e+00 0.000000e+00
1
Step 477000
Ar 1.067708e+00 0.000000e+00 0.000000e+00
1
Step 478000
Ar 1.068249e+00 0.000000e+00 0.000000e+00
1
Step 479000
Ar 8.786652e-01 0.000000e+00 0.000000e+00
1
Step 480000
Ar 7.875699e-01 0.000000e+00 0.000000e+00
1
Step 481000
Ar 1.036915e+00 0.000000e+00 0.000000e+00
1
Step 482000
Ar 1.034955e+00 0.000000e+00 0.000000e+00
1
Step 483000
Ar 9.411522e-01 0.000000e+00 0.000000e+00
1
Step 484000
Ar 9.534248e-01 0.000000e+00 0.000000e+00
1
Step 485000
Ar 9.557036e-01 0.000000e+00 0.000000e+00
1
Step 486000
Ar 1.064685e+00 0.000000e+00 0.000000e+00
1
Step 487000
Ar 1.018037e+00 0.000000e+00 0.000000e+00
1
Step 488000
Ar 8.074033e-01 0.000000e+00 0.000000e+00
1
Step 489000
Ar 1.138022e+00 0.000000e+00 0.000000e+00
1
Step 490000
Ar 1.148201e+00 0.000000e+00 0.000000e+00
1
Step 491000
Ar 1.185117e+00 0.000000e+00 0.000000e+00
1
Step 492000
Ar 7.755527e-01 0.000000e+00 0.000000e+00
1
Step 493000
Ar 1.018971e+00 0.000000e+00 0.000000e+00
1
Step 494000
Ar 9.827146e-01 0.000000e+00 0.000000e+00
1
Step 495000
Ar 1.013529e+00 0.000000e+00 0.000000e+00
1
Step 496000
Ar 1.142662e+00 0.000000e+00 0.000000e+00
1
Step 497000
Ar 1.039640e+00 0.000000e+00 0.000000e+00
1
Step 498000
Ar 1.037461e+00 0.000000e+00 0.000000e+00
1
Step 499000
Ar 1.042795e+00 0.000000e+00 0.000000e+00
1
Step 500000
Ar 1.037082e+00 0.000000e+00 0.000000e+00
1
Step 501000
Ar 1.043011e+00 0.000000e+00 0.000000e+00
1
Step 502000
Ar 9.451403e-01 0.000000e+00 0.000000e+00
1
Step 503000
Ar 9.503616e-01 0.000000e+00 0.000000e+00
1
Step 504000
Ar 9.573793e-01 0.000000e+00 0.000000e+00
1
Step 505000
Ar 7.554159e-01 0.000000e+00 0.000000e+00
1
Step 506000
Ar 7.566126e-01 0.000000e+00 0.000000e+00
1
Step 507000
Ar 9.133010e-01 0.000000e+00 0.000000e+00
1
Step 508000
Ar 8.430328e-01 0.000000e+00 0.000000e+00
1
Step 509000
Ar 1.060559e+00 0.000000e+00 0.000000e+00
1
Step 510000
Ar 8.088678e-01 0.000000e+00 0.000000e+00
1
Step 511000
Ar 1.086054e+00 0.000000e+00 0.000000e+00
1
Step 512000
Ar 1.153130e+00 0.000000e+00 0.000000e+00
1
Step 513000
Ar 8.103773e-01 0.000000e+00 0.000000e+00
1
Step 514000
Ar 8.078205e-01 0.000000e+00 0.000000e+00
1
Step 515000
Ar 8.087990e-01 0.000000e+00 0.000000e+00
1
Step 516000
Ar 8.115201e-01 0.000000e+00 0.000000e+00
1
Step 517000
Ar 8.114412e-01 0.000000e+00 0.000000e+00
1
Step 518000
Ar 8.766767e-01 0.000000e+00 0.000000e+00
1
Step 519000
Ar 1.036418e+00 0.000000e+00 0.000000e+00
1
Step 520000
Ar 9.695457e-01 0.000000e+00 0.000000e+00
1
Step 521000
Ar 8.605367e-01 0.000000e+00 0.000000e+00
1
Step 522000
Ar 6.598589e-01 0.000000e+00 0.000000e+00
1
Step 523000
Ar 8.632449e-01 0.000000e+00 0.000000e+00
1
Step 524000
Ar 7.630431e-01 0.000000e+00 0.000000e+00
1
Step 525000
Ar 1.065309e+00 0.000000e+00 0.000000e+00
1
Step 526000
Ar 1.005966e+00 0.000000e+00 0.000000e+00
1
Step 527000
Ar 9.517674e-01 0.000000e+00 0.000000e+00
1
Step 528000
Ar 8.144885e-01 0.000000e+00 0.000000e+00
1
Step 529000
Ar 1.021044e+00 0.000000e+00 0.000000e+00
1
Step 530000
Ar 6.769627e-01 0.000000e+00 0.000000e+00
1
Step 531000
Ar 1.169188e+00 0.000000e+00 0.000000e+00
1
Step 532000
Ar 1.133133e+00 0.000000e+00 0.000000e+00
1
Step 533000
Ar 9.875390e-01 0.000000e+00 0.000000e+00
1
Step 534000
Ar 1.139424e+00 0.000000e+00 0.000000e+00
1
Step 535000
Ar 8.343765e-01 0.000000e+00 0.000000e+00
1
Step 536000
Ar 1.084618e+00 0.000000e+00 0.000000e+00
1
Step 537000
Ar 1.110353e+00 0.000000e+00 0.000000e+00
1
Step 538000
Ar 9.934673e-01 0.000000e+00 0.000000e+00
1
Step 539000
Ar 1.140835e+00 0.000000e+00 0.000000e+00
1
Step 540000
Ar 7.565175e-01 0.000000e+00 0.000000e+00
1
Step 541000
Ar 8.081734e-01 0.000000e+00 0.000000e+00
1
Step 542000
Ar 8.122153e-01 0.000000e+00 0.000000e+00
1
Step 543000
Ar 1.075391e+00 0.000000e+00 0.000000e+00
1
Step 544000
Ar 8.469922e-01 0.000000e+00 0.000000e+00
1
Step 545000
Ar 9.741479e-01 0.000000e+00 0.000000e+00
1
Step 546000
Ar 1.020749e+00 0.000000e+00 0.000000e+00
1
Step 547000
Ar 6.602987e-01 0.000000e+00 0.000000e+00
1
Step 548000
Ar 7.880777e-01 0.000000e+00 0.000000e+00
1
Step 549000
Ar 1.000984e+00 0.000000e+00 0.000000e+00
1
Step 550000
Ar 8.163955e-01 0.000000e+00 0.000000e+00
1
Step 551000
Ar 1.015507e+00 0.000000e+00 0.000000e+00
1
Step 552000
Ar 1.035824e+00 0.000000e+00 0.000000e+00
1
Step 553000
Ar 9.738549e-01 0.000000e+00 0.000000e+00
1
Step 554000
Ar 9.649309e-01 0.000000e+00 0.000000e+00
1
Step 555000
Ar 9.039837e-01 0.000000e+00 0.000000e+00
1
Step 556000
Ar 8.967062e-01 0.000000e+00 0.000000e+00
1
Step 557000
Ar 9.010141e-01 0.000000e+00 0.000000e+00
1
Step 558000
Ar 8.999024e-01 0.000000e+00 0.000000e+00
1
Step 559000
Ar 9.497494e-01 0.000000e+00 0.000000e+00
1
Step 560000
Ar 6.992709e-01 0.000000e+00 0.000000e+00
1
Step 561000
Ar 6.856515e-01 0.000000e+00 0.000000e+00
1
Step 562000
Ar 1.090705e+00 0.000000e+00 0.000000e+00
1
Step 563000
Ar 1.090311e+00 0.000000e+00 0.000000e+00
1
Step 564000
Ar 8.090506e-01 0.000000e+00 0.000000e+00
1
Step 565000
Ar 1.040052e+00 0.000000e+00 0.000000e+00
1
Step 566000
Ar 1.051796e+00 0.000000e+00 0.000000e+00
1
Step 567000
Ar 1.127111e+00 0.000000e+00 0.000000e+00
1
Step 568000
Ar 8.836254e-01 0.000000e+00 0.000000e+00
1
Step 569000
Ar 1.194194e+00 0.000000e+00 0.000000e+00
1
Step 570000
Ar 7.722011e-01 0.000000e+00 0.000000e+00
1
Step 571000
Ar 1.094422e+00 0.000000e+00 0.000000e+00
1
Step 572000
Ar 8.709508e-01 0.000000e+00 0.000000e+00
1
Step 573000
Ar 7.261217e-01 0.000000e+00 0.000000e+00
1
Step 574000
Ar 9.786006e-01 0.000000e+00 0.000000e+00
1
Step 575000
Ar 9.028353e-01 0.000000e+00 0.000000e+00
1
Step 576000
Ar 1.131403e+00 0.000000e+00 0.000000e+00
1
Step 577000
Ar 9.793563e-01 0.000000e+00 0.000000e+00
1
Step 578000
Ar 8.275301e-01 0.000000e+00 0.000000e+00
1
Step 579000
Ar 9.195867e-01 0.000000e+00 0.000000e+00
1
Step 580000
Ar 1.127750e+00 0.000000e+00 0.000000e+00
1
Step 581000
Ar 8.717440e-01 0.000000e+00 0.000000e+00
1
Step 582000
Ar 1.033854e+00 0.000000e+00 0.000000e+00
1
Step 583000
Ar 6.528697e-01 0.000000e+00 0.000000e+00
1
Step 584000
Ar 9.068719e-01 0.000000e+00 0.000000e+00
1
Step 585000
Ar 8.351840e-01 0.000000e+00 0.000000e+00
1
Step 586000
Ar 1.072111e+00 0.000000e+00 0.000000e+00
1
Step 587000
Ar 9.880982e-01 0.000000e+00 0.000000e+00
1
Step 588000
Ar 1.027816e+00 0.000000e+00 0.000000e+00
1
Step 589000
Ar 1.086024e+00 0.000000e+00 0.000000e+00
1
Step 590000
Ar 1.087311e+00 0.000000e+00 0.000000e+00
1
Step 591000
Ar 5.318681e-01 0.000000e+00 0.000000e+00
1
Step 592000
Ar 1.041207e+00 0.000000e+00 0.000000e+00
1
Step 593000
Ar 1.094716e+00 0.000000e+00 0.000000e+00
1
Step 594000
Ar -1.014232e+00 0.000000e+00 0.000000e+00
1
Step 595000
Ar -1.001663e+00 0.000000e+00 0.000000e+00
1
Step 596000
Ar -9.958061e-01 0.000000e+00 0.000000e+00
1
Step 597000
Ar -1.005336e+00 0.000000e+00 0.000000e+00
1
Step 598000
Ar -1.007244e+00 0.000000e+00 0.000000e+00
1
Step 599000
Ar -1.000839e+00 0.000000e+00 0.000000e+00
1
Step 600000
Ar -1.002104e+00 0.000000e+00 0.000000e+00
1
Step 601000
Ar -1.012596e+00 0.000000e+00 0.000000e+00
1
Step 602000
Ar -1.000194e+00 0.000000e+00 0.000000e+00
1
Step 603000
Ar -1.007283e+00 0.000000e+00 0.000000e+00
1
Step 604000
Ar -1.003957e+00 0.000000e+00 0.000000e+00
1
Step 605000
Ar -1.008214e+00 0.000000e+00 0.000000e+00
1
Step 606000
Ar -9.986067e-01 0.000000e+00 0.000000e+00
1
Step 607000
Ar -9.943212e-01 0.000000e+00 0.000000e+00
1
Step 608000
Ar -1.013556e+00 0.000000e+00 0.000000e+00
1
Step 609000
Ar -9.722908e-01 0.000000e+00 0.000000e+00
1
Step 610000
Ar -9.524532e-01 0.000000e+00 0.000000e+00
1
Step 611000
Ar -1.040299e+00 0.000000e+00 0.000000e+00
1
Step 612000
Ar -1.026277e+00 0.000000e+00 0.000000e+00
1
Step 613000
Ar -1.029336e+00 0.000000e+00 0.000000e+00
1
Step 614000
Ar -1.031208e+00 0.000000e+00 0.000000e+00
1
Step 615000
Ar -1.032848e+00 0.000000e+00 0.000000e+00
1
Step 616000
Ar -9.984884e-01 0.000000e+00 0.000000e+00
1
Step 617000
Ar -9.967865e-01 0.000000e+00 0.000000e+00
1
Step 618000
Ar -9.955753e-01 0.000000e+00 0.000000e+00
1
Step 619000
Ar -9.978339e-01 0.000000e+00 0.000000e+00
1
Step 620000
Ar -1.001599e+00 0.000000e+00 0.000000e+00
1
Step 621000
Ar -9.883739e-01 0.000000e+00 0.000000e+00
1
Step 622000
Ar -9.955461e-01 0.000000e+00 0.000000e+00
1
Step 623000
Ar -9.930202e-01 0.000000e+00 0.000000e+00
1
Step 624000
Ar -1.001461e+00 0.000000e+00 0.000000e+00
1
Step 625000
Ar -9.860303e-01 0.000000e+00 0.000000e+00
1
Step 626000
Ar -9.997778e-01 0.000000e+00 0.000000e+00
1
Step 627000
Ar -9.955305e-01 0.000000e+00 0.000000e+00
1
Step 628000
Ar -9.982743e-01 0.000000e+00 0.000000e+00
1
Step 629000
Ar -9.913491e-01 0.000000e+00 0.000000e+00
1
Step 630000
Ar -9.982921e-01 0.000000e+00 0.000000e+00
1
Step 631000
Ar -9.976374e-01 0.000000e+00 0.000000e+00
1
Step 632000
Ar -1.001109e+00 0.000000e+00 0.000000e+00
1
Step 633000
Ar -9.971825e-01 0.000000e+00 0.000000e+00
1
Step 634000
Ar -1.045784e+00 0.000000e+00 0.000000e+00
1
Step 635000
Ar -1.042831e+00 0.000000e+00 0.000000e+00
1
Step 636000
Ar -1.055552e+00 0.000000e+00 0.000000e+00
1
Step 637000
Ar -1.053246e+00 0.000000e+00 0.000000e+00
1
Step 638000
Ar -1.062898e+00 0.000000e+00 0.000000e+00
1
Step 639000
Ar -1.056021e+00 0.000000e+00 0.000000e+00
1
Step 640000
Ar -1.056411e+00 0.000000e+00 0.000000e+00
1
Step 641000
Ar -1.068323e+00 0.000000e+00 0.000000e+00
1
Step 642000
Ar -1.061722e+00 0.000000e+00 0.000000e+00
1
Step 643000
Ar -1.060888e+00 0.000000e+00 0.000000e+00
1
Step 644000
Ar -1.053204e+00 0.000000e+00 0.000000e+00
1
Step 645000
Ar -1.057241e+00 0.000000e+00 0.000000e+00
1
Step 646000
Ar -1.070321e+00 0.000000e+00 0.000000e+00
1
Step 647000
Ar -9.488348e-01 0.000000e+00 0.000000e+00
1
Step 648000
Ar -9.463942e-01 0.000000e+00 0.000000e+00
1
Step 649000
Ar -9.514511e-01 0.000000e+00 0.000000e+00
1
Step 650000
Ar -9.419044e-01 0.000000e+00 0.000000e+00
1
Step 651000
Ar -9.415804e-01 0.000000e+00 0.000000e+00
1
Step 652000
Ar -9.443101e-01 0.000000e+00 0.000000e+00
1
Step 653000
Ar -9.856328e-01 0.000000e+00 0.000000e+00
1
Step 654000