1
Step 120000
Ar 1.064144e+00 0.000000e+00 0.000000e+00
1
Step 121000
Ar 9.055000e-01 0.000000e+00 0.000000e+00
1
Step 122000
Ar 8.039420e-01 0.000000e+00 0.000000e+00
1
Step 123000
Ar 1.028911e+00 0.000000e+00 0.000000e+00
1
Step 124000
Ar 9.758905e-01 0.000000e+00 0.000000e+00
1
Step 125000
Ar 8.825489e-01 0.000000e+00 0.000000e+00
1
Step 126000
Ar 1.129373e+00 0.000000e+00 0.000000e+00
1
Step 127000
Ar 1.257674e+00 0.000000e+00 0.000000e+00
1
Step 128000
Ar 1.057058e+00 0.000000e+00 0.000000e+00
1
Step 129000
Ar 1.237035e+00 0.000000e+00 0.000000e+00
1
Step 130000
Ar 1.208262e+00 0.000000e+00 0.000000e+00
1
Step 131000
Ar 1.196850e+00 0.000000e+00 0.000000e+00
1
Step 132000
Ar 1.235052e+00 0.000000e+00 0.000000e+00
1
Step 133000
Ar 1.145654e+00 0.000000e+00 0.000000e+00
1
Step 134000
Ar 1.135604e+00 0.000000e+00 0.000000e+00
1
Step 135000
Ar 1.149475e+00 0.000000e+00 0.000000e+00
1
Step 136000
Ar 9.779532e-01 0.000000e+00 0.000000e+00
1
Step 137000
Ar 9.549052e-01 0.000000e+00 0.000000e+00
1
Step 138000
Ar 1.111520e+00 0.000000e+00 0.000000e+00
1
Step 139000
Ar 1.056828e+00 0.000000e+00 0.000000e+00
1
Step 140000
Ar 1.081668e+00 0.000000e+00 0.000000e+00
1
Step 141000
Ar 1.061945e+00 0.000000e+00 0.000000e+00
1
Step 142000
Ar 1.098977e+00 0.000000e+00 0.000000e+00
1
Step 143000
Ar 9.827414e-01 0.000000e+00 0.000000e+00
1
Step 144000
Ar 8.981600e-01 0.000000e+00 0.000000e+00
1
Step 145000
Ar 9.286978e-01 0.000000e+00 0.000000e+00
1
Step 146000
Ar 9.216102e-01 0.000000e+00 0.000000e+00
1
Step 147000
Ar 9.254059e-01 0.000000e+00 0.000000e+00
1
Step 148000
Ar 9.294054e-01 0.000000e+00 0.000000e+00
1
Step 149000
Ar 9.313642e-01 0.000000e+00 0.000000e+00
1
Step 150000
Ar 9.323175e-01 0.000000e+00 0.000000e+00
1
Step 151000
Ar 9.249054e-01 0.000000e+00 0.000000e+00
1
Step 152000
Ar 9.289339e-01 0.000000e+00 0.000000e+00
1
Step 153000
Ar 9.271271e-01 0.000000e+00 0.000000e+00
1
Step 154000
Ar 9.412448e-01 0.000000e+00 0.000000e+00
1
Step 155000
Ar 9.804214e-01 0.000000e+00 0.000000e+00
1
Step 156000
Ar 9.852423e-01 0.000000e+00 0.000000e+00
1
Step 157000
Ar 9.781909e-01 0.000000e+00 0.000000e+00
1
Step 158000
Ar 9.721388e-01 0.000000e+00 0.000000e+00
1
Step 159000
Ar 9.675614e-01 0.000000e+00 0.000000e+00
1
Step 160000
Ar 9.909747e-01 0.000000e+00 0.000000e+00
1
Step 161000
Ar 9.766000e-01 0.000000e+00 0.000000e+00
1
Step 162000
Ar 9.833091e-01 0.000000e+00 0.000000e+00
1
Step 163000
Ar 9.863742e-01 0.000000e+00 0.000000e+00
1
Step 164000
Ar 9.817665e-01 0.000000e+00 0.000000e+00
1
Step 165000
Ar 9.895015e-01 0.000000e+00 0.000000e+00
1
Step 166000
Ar 9.835054e-01 0.000000e+00 0.000000e+00
1
Step 167000
Ar 9.924685e-01 0.000000e+00 0.000000e+00
1
Step 168000
Ar 9.733171e-01 0.000000e+00 0.000000e+00
1
Step 169000
Ar 9.728213e-01 0.000000e+00 0.000000e+00
1
Step 170000
Ar 9.692852e-01 0.000000e+00 0.000000e+00
1
Step 171000
Ar 9.719112e-01 0.000000e+00 0.000000e+00
1
Step 172000
Ar 9.665230e-01 0.000000e+00 0.000000e+00
1
Step 173000
Ar 9.735066e-01 0.000000e+00 0.000000e+00
1
Step 174000
Ar 9.699886e-01 0.000000e+00 0.000000e+00
1
Step 175000
Ar 9.212108e-01 0.000000e+00 0.000000e+00
1
Step 176000
Ar 8.522143e-01 0.000000e+00 0.000000e+00
1
Step 177000
Ar 8.370621e-01 0.000000e+00 0.000000e+00
1
Step 178000
Ar 8.191081e-01 0.000000e+00 0.000000e+00
1
Step 179000
Ar 7.595127e-01 0.000000e+00 0.000000e+00
1
Step 180000
Ar 7.670965e-01 0.000000e+00 0.000000e+00
1
Step 181000
Ar 8.084622e-01 0.000000e+00 0.000000e+00
1
Step 182000
Ar 8.555214e-01 0.000000e+00 0.000000e+00
1
Step 183000
Ar 8.493240e-01 0.000000e+00 0.000000e+00
1
Step 184000
Ar 7.602312e-01 0.000000e+00 0.000000e+00
1
Step 185000
Ar 7.216437e-01 0.000000e+00 0.000000e+00
1
Step 186000
Ar 7.533555e-01 0.000000e+00 0.000000e+00
1
Step 187000
Ar 7.815555e-01 0.000000e+00 0.000000e+00
1
Step 188000
Ar 7.226473e-01 0.000000e+00 0.000000e+00
1
Step 189000
Ar 7.789605e-01 0.000000e+00 0.000000e+00
1
Step 190000
Ar 7.886135e-01 0.000000e+00 0.000000e+00
1
Step 191000
Ar 7.603922e-01 0.000000e+00 0.000000e+00
1
Step 192000
Ar 8.305307e-01 0.000000e+00 0.000000e+00
1
Step 193000
Ar 8.270189e-01 0.000000e+00 0.000000e+00
1
Step 194000
Ar 8.281675e-01 0.000000e+00 0.000000e+00
1
Step 195000
Ar 6.702650e-01 0.000000e+00 0.000000e+00
1
Step 196000
Ar 5.700606e-01 0.000000e+00 0.000000e+00
1
Step 197000
Ar 6.516431e-01 0.000000e+00 0.000000e+00
1
Step 198000
Ar 6.600441e-01 0.000000e+00 0.000000e+00
1
Step 199000
Ar 6.657524e-01 0.000000e+00 0.000000e+00
1
Step 200000
Ar 5.492278e-01 0.000000e+00 0.000000e+00
1
Step 201000
Ar 6.467029e-01 0.000000e+00 0.000000e+00
1
Step 202000
Ar 6.316502e-01 0.000000e+00 0.000000e+00
1
Step 203000
Ar 6.353780e-01 0.000000e+00 0.000000e+00
1
Step 204000
Ar 6.031691e-01 0.000000e+00 0.000000e+00
1
Step 205000
Ar 6.045776e-01 0.000000e+00 0.000000e+00
1
Step 206000
Ar 5.855763e-01 0.000000e+00 0.000000e+00
1
Step 207000
Ar 6.146195e-01 0.000000e+00 0.000000e+00
1
Step 208000
Ar 5.878372e-01 0.000000e+00 0.000000e+00
1
Step 209000
Ar 5.491345e-01 0.000000e+00 0.000000e+00
1
Step 210000
Ar 5.932899e-01 0.000000e+00 0.000000e+00
1
Step 211000
Ar 6.265333e-01 0.000000e+00 0.000000e+00
1
Step 212000
Ar 6.486065e-01 0.000000e+00 0.000000e+00
1
Step 213000
Ar 6.454288e-01 0.000000e+00 0.000000e+00
1
Step 214000
Ar 6.421247e-01 0.000000e+00 0.000000e+00
1
Step 215000
Ar 6.344029e-01 0.000000e+00 0.000000e+00
1
Step 216000
Ar 5.571784e-01 0.000000e+00 0.000000e+00
1
Step 217000
Ar 5.482073e-01 0.000000e+00 0.000000e+00
1
Step 218000
Ar 5.852651e-01 0.000000e+00 0.000000e+00
1
Step 219000
Ar 5.679821e-01 0.000000e+00 0.000000e+00
1
Step 220000
Ar 5.722279e-01 0.000000e+00 0.000000e+00
1
Step 221000
Ar 5.887369e-01 0.000000e+00 0.000000e+00
1
Step 222000
Ar 5.868066e-01 0.000000e+00 0.000000e+00
1
Step 223000
Ar 5.503115e-01 0.000000e+00 0.000000e+00
1
Step 224000
Ar 5.993045e-01 0.000000e+00 0.000000e+00
1
Step 225000
Ar 5.799766e-01 0.000000e+00 0.000000e+00
1
Step 226000
Ar 5.857651e-01 0.000000e+00 0.000000e+00
1
Step 227000
Ar 5.746452e-01 0.000000e+00 0.000000e+00
1
Step 228000
Ar 5.627979e-01 0.000000e+00 0.000000e+00
1
Step 229000
Ar 5.644395e-01 0.000000e+00 0.000000e+00
1
Step 230000
Ar 5.573106e-01 0.000000e+00 0.000000e+00
1
Step 231000
Ar 5.797364e-01 0.000000e+00 0.000000e+00
1
Step 232000
Ar 5.864205e-01 0.000000e+00 0.000000e+00
1
Step 233000
Ar 5.768013e-01 0.000000e+00 0.000000e+00
1
Step 234000
Ar 5.531557e-01 0.000000e+00 0.000000e+00
1
Step 235000
Ar 5.833917e-01 0.000000e+00 0.000000e+00
1
Step 236000
Ar 5.881234e-01 0.000000e+00 0.000000e+00
1
Step 237000
Ar 5.861395e-01 0.000000e+00 0.000000e+00
1
Step 238000
Ar 4.374631e-01 0.000000e+00 0.000000e+00
1
Step 239000
Ar 4.156688e-01 0.000000e+00 0.000000e+00
1
Step 240000
Ar 4.517252e-01 0.000000e+00 0.000000e+00
1
Step 241000
Ar 5.141326e-01 0.000000e+00 0.000000e+00
1
Step 242000
Ar 4.698311e-01 0.000000e+00 0.000000e+00
1
Step 243000
Ar 3.659288e-01 0.000000e+00 0.000000e+00
1
Step 244000
Ar 4.913219e-01 0.000000e+00 0.000000e+00
1
Step 245000
Ar 4.235646e-01 0.000000e+00 0.000000e+00
1
Step 246000
Ar 4.913609e-01 0.000000e+00 0.000000e+00
1
Step 247000
Ar 4.896151e-01 0.000000e+00 0.000000e+00
1
Step 248000
Ar 4.700932e-01 0.000000e+00 0.000000e+00
1
Step 249000
Ar 4.904596e-01 0.000000e+00 0.000000e+00
1
Step 250000
Ar 4.973689e-01 0.000000e+00 0.000000e+00
1
Step 251000
Ar 4.673690e-01 0.000000e+00 0.000000e+00
1
Step 252000
Ar 4.651777e-01 0.000000e+00 0.000000e+00
1
Step 253000
Ar 4.723551e-01 0.000000e+00 0.000000e+00
1
Step 254000
Ar 4.830811e-01 0.000000e+00 0.000000e+00
1
Step 255000
Ar 4.753343e-01 0.000000e+00 0.000000e+00
1
Step 256000
Ar 4.956811e-01 0.000000e+00 0.000000e+00
1
Step 257000
Ar 4.770897e-01 0.000000e+00 0.000000e+00
1
Step 258000
Ar 5.008233e-01 0.000000e+00 0.000000e+00
1
Step 259000
Ar 4.644815e-01 0.000000e+00 0.000000e+00
1
Step 260000
Ar 4.968008e-01 0.000000e+00 0.000000e+00
1
Step 261000
Ar 4.749210e-01 0.000000e+00 0.000000e+00
1
Step 262000
Ar 4.576267e-01 0.000000e+00 0.000000e+00
1
Step 263000
Ar 4.638897e-01 0.000000e+00 0.000000e+00
1
Step 264000
Ar 4.598360e-01 0.000000e+00 0.000000e+00
1
Step 265000
Ar 4.678047e-01 0.000000e+00 0.000000e+00
1
Step 266000
Ar 4.634620e-01 0.000000e+00 0.000000e+00
1
Step 267000
Ar 4.493391e-01 0.000000e+00 0.000000e+00
1
Step 268000
Ar 4.586727e-01 0.000000e+00 0.000000e+00
1
Step 269000
Ar 4.698604e-01 0.000000e+00 0.000000e+00
1
Step 270000
Ar 4.619395e-01 0.000000e+00 0.000000e+00
1
Step 271000
Ar 4.652570e-01 0.000000e+00 0.000000e+00
1
Step 272000
Ar 4.612666e-01 0.000000e+00 0.000000e+00
1
Step 273000
Ar 4.624860e-01 0.000000e+00 0.000000e+00
1
Step 274000
Ar 4.658255e-01 0.000000e+00 0.000000e+00
1
Step 275000
Ar 5.395833e-01 0.000000e+00 0.000000e+00
1
Step 276000
Ar 5.417947e-01 0.000000e+00 0.000000e+00
1
Step 277000
Ar 5.442357e-01 0.000000e+00 0.000000e+00
1
Step 278000
Ar 5.418686e-01 0.000000e+00 0.000000e+00
1
Step 279000
Ar 5.485554e-01 0.000000e+00 0.000000e+00
1
Step 280000
Ar 5.420644e-01 0.000000e+00 0.000000e+00
1
Step 281000
Ar 4.982151e-01 0.000000e+00 0.000000e+00
1
Step 282000
Ar 4.927006e-01 0.000000e+00 0.000000e+00
1
Step 283000
Ar 4.973115e-01 0.000000e+00 0.000000e+00
1
Step 284000
Ar 4.957063e-01 0.000000e+00 0.000000e+00
1
Step 285000
Ar 5.012717e-01 0.000000e+00 0.000000e+00
1
Step 286000
Ar 4.865955e-01 0.000000e+00 0.000000e+00
1
Step 287000
Ar 4.991854e-01 0.000000e+00 0.000000e+00
1
Step 288000
Ar 4.938101e-01 0.000000e+00 0.000000e+00
1
Step 289000
Ar 4.983199e-01 0.000000e+00 0.000000e+00
1
Step 290000
Ar 4.965395e-01 0.000000e+00 0.000000e+00
1
Step 291000
Ar 4.895834e-01 0.000000e+00 0.000000e+00
1
Step 292000
Ar 4.963175e-01 0.000000e+00 0.000000e+00
1
Step 293000
Ar 4.944824e-01 0.000000e+00 0.000000e+00
1
Step 294000
Ar 4.956636e-01 0.000000e+00 0.000000e+00
1
Step 295000
Ar 4.701197e-01 0.000000e+00 0.000000e+00
1
Step 296000
Ar 9.857031e-02 0.000000e+00 0.000000e+00
1
Step 297000
Ar 4.264040e-01 0.000000e+00 0.000000e+00
1
Step 298000
Ar 3.919541e-01 0.000000e+00 0.000000e+00
1
Step 299000
Ar 4.249520e-01 0.000000e+00 0.000000e+00
1
Step 300000
Ar 3.685152e-01 0.000000e+00 0.000000e+00
1
Step 301000
Ar 2.850584e-01 0.000000e+00 0.000000e+00
1
Step 302000
Ar 3.843940e-01 0.000000e+00 0.000000e+00
1
Step 303000
Ar 4.288428e-01 0.000000e+00 0.000000e+00
1
Step 304000
Ar -1.672504e-01 0.000000e+00 0.000000e+00
1
Step 305000
Ar -1.042690e+00 0.000000e+00 0.000000e+00
1
Step 306000
Ar -8.951613e-01 0.000000e+00 0.000000e+00
1
Step 307000
Ar -8.640123e-01 0.000000e+00 0.000000e+00
1
Step 308000
Ar -1.004949e+00 0.000000e+00 0.000000e+00
1
Step 309000
Ar -1.025196e+00 0.000000e+00 0.000000e+00
1
Step 310000
Ar -9.052266e-01 0.000000e+00 0.000000e+00
1
Step 311000
Ar -1.061446e+00 0.000000e+00 0.000000e+00
1
Step 312000
Ar -8.377490e-01 0.000000e+00 0.000000e+00
1
Step 313000
Ar -9.188839e-01 0.000000e+00 0.000000e+00
1
Step 314000
Ar -9.123919e-01 0.000000e+00 0.000000e+00
1
Step 315000
Ar -9.846137e-01 0.000000e+00 0.000000e+00
1
Step 316000
Ar -1.033203e+00 0.000000e+00 0.000000e+00
1
Step 317000
Ar -1.021185e+00 0.000000e+00 0.000000e+00
1
Step 318000
Ar -1.028696e+00 0.000000e+00 0.000000e+00
1
Step 319000
Ar -9.848980e-01 0.000000e+00 0.000000e+00
1
Step 320000
Ar -8.971646e-01 0.000000e+00 0.000000e+00
1
Step 321000
Ar -9.864668e-01 0.000000e+00 0.000000e+00
1
Step 322000
Ar -8.959162e-01 0.000000e+00 0.000000e+00
1
Step 323000
Ar -8.496469e-01 0.000000e+00 0.000000e+00
1
Step 324000
Ar -8.809143e-01 0.000000e+00 0.000000e+00
1
Step 325000
Ar -6.052315e-01 0.000000e+00 0.000000e+00
1
Step 326000
Ar -9.152922e-01 0.000000e+00 0.000000e+00
1
Step 327000
Ar -9.327614e-01 0.000000e+00 0.000000e+00
1
Step 328000
Ar -9.340594e-01 0.000000e+00 0.000000e+00
1
Step 329000
Ar -6.839711e-01 0.000000e+00 0.000000e+00
1
Step 330000
Ar -1.005155e+00 0.000000e+00 0.000000e+00
1
Step 331000
Ar -9.511160e-01 0.000000e+00 0.000000e+00
1
Step 332000
Ar -8.941040e-01 0.000000e+00 0.000000e+00
1
Step 333000
Ar -1.010034e+00 0.000000e+00 0.000000e+00
1
Step 334000
Ar -1.008093e+00 0.000000e+00 0.000000e+00
1
Step 335000
Ar -9.388847e-01 0.000000e+00 0.000000e+00
1
Step 336000
Ar -9.697122e-01 0.000000e+00 0.000000e+00
1
Step 337000
Ar -7.425428e-01 0.000000e+00 0.000000e+00
1
Step 338000
Ar -8.130170e-01 0.000000e+00 0.000000e+00
1
Step 339000
Ar -8.265426e-01 0.000000e+00 0.000000e+00
1
Step 340000
Ar -9.035187e-01 0.000000e+00 0.000000e+00
1
Step 341000
Ar -8.209026e-01 0.000000e+00 0.000000e+00
1
Step 342000
Ar -8.647461e-01 0.000000e+00 0.000000e+00
1
Step 343000
Ar -9.945626e-01 0.000000e+00 0.000000e+00
1
Step 344000
Ar -9.873673e-01 0.000000e+00 0.000000e+00
1
Step 345000
Ar -9.586500e-01 0.000000e+00 0.000000e+00
1
Step 346000
Ar -9.594071e-01 0.000000e+00 0.000000e+00
1
Step 347000
Ar -1.004435e+00 0.000000e+00 0.000000e+00
1
Step 348000
Ar -9.627296e-01 0.000000e+00 0.000000e+00
1
Step 349000
Ar -1.030640e+00 0.000000e+00 0.000000e+00
1
Step 350000
Ar -1.002779e+00 0.000000e+00 0.000000e+00
1
Step 351000
Ar -9.331979e-01 0.000000e+00 0.000000e+00
1
Step 352000
Ar -9.425401e-01 0.000000e+00 0.000000e+00
1
Step 353000
Ar -9.242239e-01 0.000000e+00 0.000000e+00
1
Step 354000
Ar -9.359656e-01 0.000000e+00 0.000000e+00
1
Step 355000
Ar -9.131295e-01 0.000000e+00 0.000000e+00
1
Step 356000
Ar -1.002860e+00 0.000000e+00 0.000000e+00
1
Step 357000
Ar -1.002979e+00 0.000000e+00 0.000000e+00
1
Step 358000
Ar -9.761528e-01 0.000000e+00 0.000000e+00
1
Step 359000
Ar -9.936372e-01 0.000000e+00 0.000000e+00
1
Step 360000
Ar -9.753755e-01 0.000000e+00 0.000000e+00
1
Step 361000
Ar -9.901052e-01 0.000000e+00 0.000000e+00
1
Step 362000
Ar -9.721165e-01 0.000000e+00 0.000000e+00
1
Step 363000
Ar -9.788603e-01 0.000000e+00 0.000000e+00
1
Step 364000
Ar -9.720697e-01 0.000000e+00 0.000000e+00
1
Step 365000
Ar -8.838448e-01 0.000000e+00 0.000000e+00
1
Step 366000
Ar -8.594288e-01 0.000000e+00 0.000000e+00
1
Step 367000
Ar -8.678273e-01 0.000000e+00 0.000000e+00
1
Step 368000
Ar -8.734678e-01 0.000000e+00 0.000000e+00
1
Step 369000
Ar -8.697168e-01 0.000000e+00 0.000000e+00
1
Step 370000
Ar -8.630465e-01 0.000000e+00 0.000000e+00
1
Step 371000
Ar -8.705701e-01 0.000000e+00 0.000000e+00
1
Step 372000
Ar -8.425130e-01 0.000000e+00 0.000000e+00
1
Step 373000
Ar -8.519023e-01 0.000000e+00 0.000000e+00
1
Step 374000
Ar -8.494385e-01 0.000000e+00 0.000000e+00
1
Step 375000
Ar -8.456959e-01 0.000000e+00 0.000000e+00
1
Step 376000
Ar -8.522376e-01 0.000000e+00 0.000000e+00
1
Step 377000
Ar -8.399479e-01 0.000000e+00 0.000000e+00
1
Step 378000
Ar -8.369908e-01 0.000000e+00 0.000000e+00
1
Step 379000
Ar -6.661731e-01 0.000000e+00 0.000000e+00
1
Step 380000
Ar -7.812778e-01 0.000000e+00 0.000000e+00
1
Step 381000
Ar -7.300583e-01 0.000000e+00 0.000000e+00
1
Step 382000
Ar -6.993304e-01 0.000000e+00 0.000000e+00
1
Step 383000
Ar -6.968981e-01 0.000000e+00 0.000000e+00
1
Step 384000
Ar -7.036063e-01 0.000000e+00 0.000000e+00
1
Step 385000
Ar -7.003366e-01 0.000000e+00 0.000000e+00
1
Step 386000
Ar -6.998695e-01 0.000000e+00 0.000000e+00
1
Step 387000
Ar -7.028703e-01 0.000000e+00 0.000000e+00
1
Step 388000
Ar -7.031424e-01 0.000000e+00 0.000000e+00
1
Step 389000
Ar -6.877035e-01 0.000000e+00 0.000000e+00
1
Step 390000
Ar -6.937745e-01 0.000000e+00 0.000000e+00
1
Step 391000
Ar -6.915558e-01 0.000000e+00 0.000000e+00
1
Step 392000
Ar -4.821328e-01 0.000000e+00 0.000000e+00
1
Step 393000
Ar -4.471442e-01 0.000000e+00 0.000000e+00
1
Step 394000
Ar -3.976914e-01 0.000000e+00 0.000000e+00
1
Step 395000
Ar -6.883885e-02 0.000000e+00 0.000000e+00
1
Step 396000
Ar 3.733326e-01 0.000000e+00 0.000000e+00
1
Step 397000
Ar -4.255786e-01 0.000000e+00 0.000000e+00
1
Step 398000
Ar -1.803981e-02 0.000000e+00 0.000000e+00
1
Step 399000
Ar 1.689198e-01 0.000000e+00 0.000000e+00
1
Step 400000
Ar 4.188255e-01 0.000000e+00 0.000000e+00
1
Step 401000
Ar 4.049768e-01 0.000000e+00 0.000000e+00
1
Step 402000
Ar 4.210354e-01 0.000000e+00 0.000000e+00
1
Step 403000
Ar 4.054523e-01 0.000000e+00 0.000000e+00
1
Step 404000
Ar 4.002013e-01 0.000000e+00 0.000000e+00
1
Step 405000
Ar -2.993699e-01 0.000000e+00 0.000000e+00
1
Step 406000
Ar -4.350208e-01 0.000000e+00 0.000000e+00
1
Step 407000
Ar -4.423106e-01 0.000000e+00 0.000000e+00
1
Step 408000
Ar -4.020198e-01 0.000000e+00 0.000000e+00
1
Step 409000
Ar -4.240960e-01 0.000000e+00 0.000000e+00
1
Step 410000
Ar -4.311729e-01 0.000000e+00 0.000000e+00
1
Step 411000
Ar -3.934431e-01 0.000000e+00 0.000000e+00
1
Step 412000
Ar -5.252738e-01 0.000000e+00 0.000000e+00
1
Step 413000
Ar -5.127236e-01 0.000000e+00 0.000000e+00
1
Step 414000
Ar -4.968085e-01 0.000000e+00 0.000000e+00
1
Step 415000
Ar -5.044643e-01 0.000000e+00 0.000000e+00
1
Step 416000
Ar -5.131178e-01 0.000000e+00 0.000000e+00
1
Step 417000
Ar -5.011285e-01 0.000000e+00 0.000000e+00
1
Step 418000
Ar -5.001737e-01 0.000000e+00 0.000000e+00
1
Step 419000
Ar -4.997445e-01 0.000000e+00 0.000000e+00
1
Step 420000
Ar -5.073217e-01 0.000000e+00 0.000000e+00
1
Step 421000
Ar -5.084784e-01 0.000000e+00 0.000000e+00
1
Step 422000
Ar -5.132505e-01 0.000000e+00 0.000000e+00
1
Step 423000
Ar -5.058429e-01 0.000000e+00 0.000000e+00
1
Step 424000
Ar -5.037696e-01 0.000000e+00 0.000000e+00
1
Step 425000
Ar -5.015205e-01 0.000000e+00 0.000000e+00
1
Step 426000
Ar -5.005218e-01 0.000000e+00 0.000000e+00
1
Step 427000
Ar -5.073193e-01 0.000000e+00 0.000000e+00
1
Step 428000
Ar -4.976985e-01 0.000000e+00 0.000000e+00
1
Step 429000
Ar -5.027885e-01 0.000000e+00 0.000000e+00
1
Step 430000
Ar -4.976655e-01 0.000000e+00 0.000000e+00
1
Step 431000
Ar -4.962181e-01 0.000000e+00 0.000000e+00
1
Step 432000
Ar -5.038321e-01 0.000000e+00 0.000000e+00
1
Step 433000
Ar -5.069287e-01 0.000000e+00 0.000000e+00
1
Step 434000
Ar -9.811670e-01 0.000000e+00 0.000000e+00
1
Step 435000
Ar -9.736551e-01 0.000000e+00 0.000000e+00
1
Step 436000
Ar -9.814495e-01 0.000000e+00 0.000000e+00
1
Step 437000
Ar -9.830141e-01 0.000000e+00 0.000000e+00
1
Step 438000
Ar -9.783180e-01 0.000000e+00 0.000000e+00
1
Step 439000
Ar -9.800470e-01 0.000000e+00 0.000000e+00
1
Step 440000
Ar -9.879458e-01 0.000000e+00 0.000000e+00
1
Step 441000
Ar -8.806421e-01 0.000000e+00 0.000000e+00
1
Step 442000
Ar -8.835194e-01 0.000000e+00 0.000000e+00
1
Step 443000
Ar -8.829714e-01 0.000000e+00 0.000000e+00
1
Step 444000
Ar -1.120554e+00 0.000000e+00 0.000000e+00
1
Step 445000
Ar -1.133535e+00 0.000000e+00 0.000000e+00
1
Step 446000
Ar -1.145418e+00 0.000000e+00 0.000000e+00
1
Step 447000
Ar -1.024139e+00 0.000000e+00 0.000000e+00
1
Step 448000
Ar -1.026318e+00 0.000000e+00 0.000000e+00
1
Step 449000
Ar -1.020243e+00 0.000000e+00 0.000000e+00
1
Step 450000
Ar -1.094967e+00 0.000000e+00 0.000000e+00
1
Step 451000
Ar -1.089015e+00 0.000000e+00 0.000000e+00
1
Step 452000
Ar -1.090050e+00 0.000000e+00 0.000000e+00
1
Step 453000
Ar -1.021828e+00 0.000000e+00 0.000000e+00
1
Step 454000
Ar -1.087252e+00 0.000000e+00 0.000000e+00
1
Step 455000
Ar -1.075558e+00 0.000000e+00 0.000000e+00
1
Step 456000
Ar 1.770605e-01 0.000000e+00 0.000000e+00
1
Step 457000
Ar 9.968147e-02 0.000000e+00 0.000000e+00
1
Step 458000
Ar 2.372451e-01 0.000000e+00 0.000000e+00
1
Step 459000
Ar -2.802931e-01 0.000000e+00 0.000000e+00
1
Step 460000
Ar -1.551375e-01 0.000000e+00 0.000000e+00
1
Step 461000
Ar -3.357736e-01 0.000000e+00 0.000000e+00
1
Step 462000
Ar -3.454125e-01 0.000000e+00 0.000000e+00
1
Step 463000
Ar -3.418076e-01 0.000000e+00 0.000000e+00
1
Step 464000
Ar 1.336463e-01 0.000000e+00 0.000000e+00
1
Step 465000
Ar -2.880208e-01 0.000000e+00 0.000000e+00
1
Step 466000
Ar 1.156482e-01 0.000000e+00 0.000000e+00
1
Step 467000
Ar 1.081824e-01 0.000000e+00 0.000000e+00
1
Step 468000
Ar 4.216194e-02 0.000000e+00 0.000000e+00
1
Step 469000
Ar 1.064921e-01 0.000000e+00 0.000000e+00
1
Step 470000
Ar 5.641049e-02 0.000000e+00 0.000000e+00
1
Step 471000
Ar 1.039798e-01 0.000000e+00 0.000000e+00
1
Step 472000
Ar 8.503349e-02 0.000000e+00 0.000000e+00
1
Step 473000
Ar 1.002815e-01 0.000000e+00 0.000000e+00
1
Step 474000
Ar 1.050560e-01 0.000000e+00 0.000000e+00
1
Step 475000
Ar 6.851840e-02 0.000000e+00 0.000000e+00
1
Step 476000
Ar 5.976530e-02 0.000000e+00 0.000000e+00
1
Step 477000
Ar 1.156777e-01 0.000000e+00 0.000000e+00
1
Step 478000
Ar 1.081545e-01 0.000000e+00 0.000000e+00
1
Step 479000
Ar 1.225424e-01 0.000000e+00 0.000000e+00
1
Step 480000
Ar 1.043636e-01 0.000000e+00 0.000000e+00
1
Step 481000
Ar 1.119400e-01 0.000000e+00 0.000000e+00
1
Step 482000
Ar 7.109264e-02 0.000000e+00 0.000000e+00
1
Step 483000
Ar 5.803535e-02 0.000000e+00 0.000000e+00
1
Step 484000
Ar 5.131428e-02 0.000000e+00 0.000000e+00
1
Step 485000
Ar 7.909963e-02 0.000000e+00 0.000000e+00
1
Step 486000
Ar 5.860051e-02 0.000000e+00 0.000000e+00
1
Step 487000
Ar 6.631872e-02 0.000000e+00 0.000000e+00
1
Step 488000
Ar 5.145729e-02 0.000000e+00 0.000000e+00
1
Step 489000
Ar 7.332620e-02 0.000000e+00 0.000000e+00
1
Step 490000
Ar -2.611186e-01 0.000000e+00 0.000000e+00
1
Step 491000
Ar -3.318997e-01 0.000000e+00 0.000000e+00
1
Step 492000
Ar -3.364809e-01 0.000000e+00 0.000000e+00
1
Step 493000
Ar -3.130112e-01 0.000000e+00 0.000000e+00
1
Step 494000
Ar -1.911535e-02 0.000000e+00 0.000000e+00
1
Step 495000
Ar -2.754387e-01 0.000000e+00 0.000000e+00
1
Step 496000
Ar -1.345235e-01 0.000000e+00 0.000000e+00
1
Step 497000
Ar -1.962761e-01 0.000000e+00 0.000000e+00
1
Step 498000
Ar -2.083418e-04 0.000000e+00 0.000000e+00
1
Step 499000
Ar -8.772811e-04 0.000000e+00 0.000000e+00
1
Step 500000
Ar -2.085410e-01 0.000000e+00 0.000000e+00
1
Step 501000
Ar -1.686497e-01 0.000000e+00 0.000000e+00
1
Step 502000
Ar -1.729422e-01 0.000000e+00 0.000000e+00
1
Step 503000
Ar -2.110889e-01 0.000000e+00 0.000000e+00
1
Step 504000
Ar -2.137175e-01 0.000000e+00 0.000000e+00
1
Step 505000
Ar -2.131123e-01 0.000000e+00 0.000000e+00
1
Step 506000
Ar -2.111052e-01 0.000000e+00 0.000000e+00
1
Step 507000
Ar -2.177261e-01 0.000000e+00 0.000000e+00
1
Step 508000
Ar -2.162244e-01 0.000000e+00 0.000000e+00
1
Step 509000
Ar -2.148428e-01 0.000000e+00 0.000000e+00
1
Step 510000
Ar -2.147195e-01 0.000000e+00 0.000000e+00
1
Step 511000
Ar -2.140471e-01 0.000000e+00 0.000000e+00
1
Step 512000
Ar -2.173230e-01 0.000000e+00 0.000000e+00
1
Step 513000
Ar -2.110650e-01 0.000000e+00 0.000000e+00
1
Step 514000
Ar -8.920956e-01 0.000000e+00 0.000000e+00
1
Step 515000
Ar -9.093124e-01 0.000000e+00 0.000000e+00
1
Step 516000
Ar -9.144534e-01 0.000000e+00 0.000000e+00
1
Step 517000
Ar -9.254146e-01 0.000000e+00 0.000000e+00
1
Step 518000
Ar -9.147049e-01 0.000000e+00 0.000000e+00
1
Step 519000
Ar -9.193908e-01 0.000000e+00 0.000000e+00
1
Step 520000
Ar -5.356741e-01 0.000000e+00 0.000000e+00
1
Step 521000
Ar -6.408059e-01 0.000000e+00 0.000000e+00
1
Step 522000
Ar -5.910473e-01 0.000000e+00 0.000000e+00
1
Step 523000
Ar -5.972470e-01 0.000000e+00 0.000000e+00
1
Step 524000
Ar -6.318161e-01 0.000000e+00 0.000000e+00
1
Step 525000
Ar -6.337363e-01 0.000000e+00 0.000000e+00
1
Step 526000
Ar -5.664489e-01 0.000000e+00 0.000000e+00
1
Step 527000
Ar -6.018901e-01 0.000000e+00 0.000000e+00
1
Step 528000
Ar -8.337180e-01 0.000000e+00 0.000000e+00
1
Step 529000
Ar -6.355619e-01 0.000000e+00 0.000000e+00
1
Step 530000
Ar -6.619326e-01 0.000000e+00 0.000000e+00
1
Step 531000
Ar -6.337195e-01 0.000000e+00 0.000000e+00
1
Step 532000
Ar -6.364889e-01 0.000000e+00 0.000000e+00
1
Step 533000
Ar -6.427259e-01 0.000000e+00 0.000000e+00
1
Step 534000
Ar -6.405340e-01 0.000000e+00 0.000000e+00
1
Step 535000
Ar -6.442339e-01 0.000000e+00 0.000000e+00
1
Step 536000
Ar -6.334589e-01 0.000000e+00 0.000000e+00
1
Step 537000
Ar -6.422783e-01 0.000000e+00 0.000000e+00
1
Step 538000
Ar -6.663394e-01 0.000000e+00 0.000000e+00
1
Step 539000
Ar -5.758884e-01 0.000000e+00 0.000000e+00
1
Step 540000
Ar -5.718835e-01 0.000000e+00 0.000000e+00
1
Step 541000
Ar -5.740326e-01 0.000000e+00 0.000000e+00
1
Step 542000
Ar -5.794965e-01 0.000000e+00 0.000000e+00
1
Step 543000
Ar -5.797255e-01 0.000000e+00 0.000000e+00
1
Step 544000
Ar -6.315978e-01 0.000000e+00 0.000000e+00
1
Step 545000
Ar -6.330631e-01 0.000000e+00 0.000000e+00
1
Step 546000
Ar -6.325453e-01 0.000000e+00 0.000000e+00
1
Step 547000
Ar -6.290685e-01 0.000000e+00 0.000000e+00
1
Step 548000
Ar -6.017500e-01 0.000000e+00 0.000000e+00
1
Step 549000
Ar -6.045302e-01 0.000000e+00 0.000000e+00
1
Step 550000
Ar -6.057260e-01 0.000000e+00 0.000000e+00
1
Step 551000
Ar -5.929851e-01 0.000000e+00 0.000000e+00
1
Step 552000
Ar -2.919721e-01 0.000000e+00 0.000000e+00
1
Step 553000
Ar -3.179547e-01 0.000000e+00 0.000000e+00
1
Step 554000
Ar -2.449820e-01 0.000000e+00 0.000000e+00
1
Step 555000
Ar -2.737148e-01 0.000000e+00 0.000000e+00
1
Step 556000
Ar -2.727887e-01 0.000000e+00 0.000000e+00
1
Step 557000
Ar -2.951087e-01 0.000000e+00 0.000000e+00
1
Step 558000
Ar -3.210171e-01 0.000000e+00 0.000000e+00
1
Step 559000
Ar -2.864360e-01 0.000000e+00 0.000000e+00
1
Step 560000
Ar -2.955845e-01 0.000000e+00 0.000000e+00
1
Step 561000
Ar -3.146587e-01 0.000000e+00 0.000000e+00
1
Step 562000
Ar -3.272460e-01 0.000000e+00 0.000000e+00
1
Step 563000
Ar -3.248166e-01 0.000000e+00 0.000000e+00
1
Step 564000
Ar -3.156907e-01 0.000000e+00 0.000000e+00
1
Step 565000
Ar -2.916303e-01 0.000000e+00 0.000000e+00
1
Step 566000
Ar -3.021903e-01 0.000000e+00 0.000000e+00
1
Step 567000
Ar -2.963583e-01 0.000000e+00 0.000000e+00
1
Step 568000
Ar -2.957844e-01 0.000000e+00 0.000000e+00
1
Step 569000
Ar -3.197142e-01 0.000000e+00 0.000000e+00
1
Step 570000
Ar -3.194153e-01 0.000000e+00 0.000000e+00
1
Step 571000
Ar -3.011431e-01 0.000000e+00 0.000000e+00
1
Step 572000
Ar -3.151592e-01 0.000000e+00 0.000000e+00
1
Step 573000
Ar -3.171962e-01 0.000000e+00 0.000000e+00
1
Step 574000
Ar -3.211284e-01 0.000000e+00 0.000000e+00
1
Step 575000
Ar -3.012576e-01 0.000000e+00 0.000000e+00
1
Step 576000
Ar -3.061596e-01 0.000000e+00 0.000000e+00
1
Step 577000
Ar -3.100144e-01 0.000000e+00 0.000000e+00
1
Step 578000
Ar -3.016749e-01 0.000000e+00 0.000000e+00
1
Step 579000
Ar -2.594067e-01 0.000000e+00 0.000000e+00
1
Step 580000
Ar -8.862245e-02 0.000000e+00 0.000000e+00
1
Step 581000
Ar -5.069861e-02 0.000000e+00 0.000000e+00
1
Step 582000
Ar -9.634076e-03 0.000000e+00 0.000000e+00
1
Step 583000
Ar -3.753402e-02 0.000000e+00 0.000000e+00
1
Step 584000
Ar -6.014254e-02 0.000000e+00 0.000000e+00
1
Step 585000
Ar -6.690741e-02 0.000000e+00 0.000000e+00
1
Step 586000
Ar -4.568482e-02 0.000000e+00 0.000000e+00
1
Step 587000
Ar -6.631860e-02 0.000000e+00 0.000000e+00
1
Step 588000
Ar -3.137255e-02 0.000000e+00 0.000000e+00
1
Step 589000
Ar -1.054818e-02 0.000000e+00 0.000000e+00
1
Step 590000
Ar -5.328850e-05 0.000000e+00 0.000000e+00
1
Step 591000
Ar -3.459127e-05 0.000000e+00 0.000000e+00
1
Step 592000
Ar -2.801560e-02 0.000000e+00 0.000000e+00
1
Step 593000
Ar -2.507360e-02 0.000000e+00 0.000000e+00
1
Step 594000
Ar -2.142642e-02 0.000000e+00 0.000000e+00
1
Step 595000
Ar -1.322595e-02 0.000000e+00 0.000000e+00
1
Step 596000
Ar 3.779143e-03 0.000000e+00 0.000000e+00
1
Step 597000
Ar -2.196561e-03 0.000000e+00 0.000000e+00
1
Step 598000
Ar 5.059088e-03 0.000000e+00 0.000000e+00
1
Step 599000
Ar -1.341401e-02 0.000000e+00 0.000000e+00
1
Step 600000
Ar -8.661075e-03 0.000000e+00 0.000000e+00
1
Step 601000
Ar 6.169109e-03 0.000000e+00 0.000000e+00
1
Step 602000
Ar -9.072323e-03 0.000000e+00 0.000000e+00
1
Step 603000
Ar -1.156468e-03 0.000000e+00 0.000000e+00
1
Step 604000
Ar -6.819128e-03 0.000000e+00 0.000000e+00
1
Step 605000
Ar -1.068048e-02 0.000000e+00 0.000000e+00
1
Step 606000
Ar -8.207839e-03 0.000000e+00 0.000000e+00
1
Step 607000
Ar -4.081786e-03 0.000000e+00 0.000000e+00
1
Step 608000
Ar -9.637473e-03 0.000000e+00 0.000000e+00
1
Step 609000
Ar -1.655262e-03 0.000000e+00 0.000000e+00
1
Step 610000
Ar -5.208243e-03 0.000000e+00 0.000000e+00
1
Step 611000
Ar 4.621827e-03 0.000000e+00 0.000000e+00
1
Step 612000
Ar -1.531509e-02 0.000000e+00 0.000000e+00
1
Step 613000
Ar 3.492381e-04 0.000000e+00 0.000000e+00
1
Step 614000
Ar 3.341857e-03 0.000000e+00 0.000000e+00
1
Step 615000
Ar -1.618049e-02 0.000000e+00 0.000000e+00
1
Step 616000
Ar -1.313174e-02 0.000000e+00 0.000000e+00
1
Step 617000
Ar -1.267630e-03 0.000000e+00 0.000000e+00
1
Step 618000
Ar -3.982809e-03 0.000000e+00 0.000000e+00
1
Step 619000
Ar -1.829378e-01 0.000000e+00 0.000000e+00
1
Step 620000
Ar -1.654581e-01 0.000000e+00 0.000000e+00
1
Step 621000
Ar -1.881816e-01 0.000000e+00 0.000000e+00
1
Step 622000
Ar -1.883568e-01 0.000000e+00 0.000000e+00
1
Step 623000
Ar -1.799986e-01 0.000000e+00 0.000000e+00
1
Step 624000
Ar -1.888859e-01 0.000000e+00 0.000000e+00
1
Step 625000
Ar -1.698908e-01 0.000000e+00 0.000000e+00
1
Step 626000
Ar -1.769851e-01 0.000000e+00 0.000000e+00
1
Step 627000
Ar -4.010611e-01 0.000000e+00 0.000000e+00
1
Step 628000
Ar -3.768029e-01 0.000000e+00 0.000000e+00
1
Step 629000
Ar -3.973252e-01 0.000000e+00 0.000000e+00
1
Step 630000
Ar -4.003718e-01 0.000000e+00 0.000000e+00
1
Step 631000
Ar -4.443036e-01 0.000000e+00 0.000000e+00
1
Step 632000
Ar -4.345203e-01 0.000000e+00 0.000000e+00
1
Step 633000
Ar -4.422072e-01 0.000000e+00 0.000000e+00
1
Step 634000
Ar -4.366691e-01 0.000000e+00 0.000000e+00
1
Step 635000
Ar -4.386269e-01 0.000000e+00 0.000000e+00
1
Step 636000
Ar -4.473301e-01 0.000000e+00 0.000000e+00
1
Step 637000
Ar -4.338835e-01 0.000000e+00 0.000000e+00
1
Step 638000
Ar -4.485168e-01 0.000000e+00 0.000000e+00
1
Step 639000
Ar -4.458845e-01 0.000000e+00 0.000000e+00
1
Step 640000
Ar -4.464236e-01 0.000000e+00 0.000000e+00
1
Step 641000
Ar -4.071484e-01 0.000000e+00 0.000000e+00
1
Step 642000
Ar -3.980559e-01 0.000000e+00 0.000000e+00
1
Step 643000
Ar -4.065175e-01 0.000000e+00 0.000000e+00
1
Step 644000
Ar -4.072697e-01 0.000000e+00 0.000000e+00
1
Step 645000
Ar -4.086360e-01 0.000000e+00 0.000000e+00
1
Step 646000
Ar -4.083465e-01 0.000000e+00 0.000000e+00
1
Step 647000
Ar -4.097634e-01 0.000000e+00 0.000000e+00
1
Step 648000
Ar -4.035036e-01 0.000000e+00 0.000000e+00
1
Step 649000
Ar -4.109358e-01 0.000000e+00 0.000000e+00
1
Step 650000