1
Step 120000
Ar 3.829356e-02 0.000000e+00 0.000000e+00
1
Step 121000
Ar -3.845008e-02 0.000000e+00 0.000000e+00
1
Step 122000
Ar 4.210104e-02 0.000000e+00 0.000000e+00
1
Step 123000
Ar 1.183530e-04 0.000000e+00 0.000000e+00
1
Step 124000
Ar -4.524230e-04 0.000000e+00 0.000000e+00
1
Step 125000
Ar -4.896756e-03 0.000000e+00 0.000000e+00
1
Step 126000
Ar -2.478266e-02 0.000000e+00 0.000000e+00
1
Step 127000
Ar 5.144292e-03 0.000000e+00 0.000000e+00
1
Step 128000
Ar -8.004582e-02 0.000000e+00 0.000000e+00
1
Step 129000
Ar -3.500669e-02 0.000000e+00 0.000000e+00
1
Step 130000
Ar -8.304148e-03 0.000000e+00 0.000000e+00
1
Step 131000
Ar 4.891332e-02 0.000000e+00 0.000000e+00
1
Step 132000
Ar 4.203373e-02 0.000000e+00 0.000000e+00
1
Step 133000
Ar 7.910913e-02 0.000000e+00 0.000000e+00
1
Step 134000
Ar -2.450270e-02 0.000000e+00 0.000000e+00
1
Step 135000
Ar 1.150979e-02 0.000000e+00 0.000000e+00
1
Step 136000
Ar 4.278604e-02 0.000000e+00 0.000000e+00
1
Step 137000
Ar 2.648489e-02 0.000000e+00 0.000000e+00
1
Step 138000
Ar 1.332509e-02 0.000000e+00 0.000000e+00
1
Step 139000
Ar 1.447874e-02 0.000000e+00 0.000000e+00
1
Step 140000
Ar -2.840576e-02 0.000000e+00 0.000000e+00
1
Step 141000
Ar 2.280693e-02 0.000000e+00 0.000000e+00
1
Step 142000
Ar -5.193674e-02 0.000000e+00 0.000000e+00
1
Step 143000
Ar 3.599485e-02 0.000000e+00 0.000000e+00
1
Step 144000
Ar 2.982673e-02 0.000000e+00 0.000000e+00
1
Step 145000
Ar -1.656459e-03 0.000000e+00 0.000000e+00
1
Step 146000
Ar -7.429030e-03 0.000000e+00 0.000000e+00
1
Step 147000
Ar -1.389181e-02 0.000000e+00 0.000000e+00
1
Step 148000
Ar -9.206394e-05 0.000000e+00 0.000000e+00
1
Step 149000
Ar -4.534468e-02 0.000000e+00 0.000000e+00
1
Step 150000
Ar 2.466521e-02 0.000000e+00 0.000000e+00
1
Step 151000
Ar -5.977153e-02 0.000000e+00 0.000000e+00
1
Step 152000
Ar 7.125135e-03 0.000000e+00 0.000000e+00
1
Step 153000
Ar 7.067864e-02 0.000000e+00 0.000000e+00
1
Step 154000
Ar 5.531375e-03 0.000000e+00 0.000000e+00
1
Step 155000
Ar 1.957084e-02 0.000000e+00 0.000000e+00
1
Step 156000
Ar -8.666736e-03 0.000000e+00 0.000000e+00
1
Step 157000
Ar -1.498774e-02 0.000000e+00 0.000000e+00
1
Step 158000
Ar -1.619337e-02 0.000000e+00 0.000000e+00
1
Step 159000
Ar 4.266859e-02 0.000000e+00 0.000000e+00
1
Step 160000
Ar 2.132209e-02 0.000000e+00 0.000000e+00
1
Step 161000
Ar -1.582658e-03 0.000000e+00 0.000000e+00
1
Step 162000
Ar -2.306230e-02 0.000000e+00 0.000000e+00
1
Step 163000
Ar 4.335497e-02 0.000000e+00 0.000000e+00
1
Step 164000
Ar -4.161151e-02 0.000000e+00 0.000000e+00
1
Step 165000
Ar 4.486361e-02 0.000000e+00 0.000000e+00
1
Step 166000
Ar -8.366932e-02 0.000000e+00 0.000000e+00
1
Step 167000
Ar -1.575225e-02 0.000000e+00 0.000000e+00
1
Step 168000
Ar -3.404410e-02 0.000000e+00 0.000000e+00
1
Step 169000
Ar 1.371049e-02 0.000000e+00 0.000000e+00
1
Step 170000
Ar -1.053041e-02 0.000000e+00 0.000000e+00
1
Step 171000
Ar -2.370532e-02 0.000000e+00 0.000000e+00
1
Step 172000
Ar -8.348420e-03 0.000000e+00 0.000000e+00
1
Step 173000
Ar -5.466422e-03 0.000000e+00 0.000000e+00
1
Step 174000
Ar 1.046937e-02 0.000000e+00 0.000000e+00
1
Step 175000
Ar -1.099048e-02 0.000000e+00 0.000000e+00
1
Step 176000
Ar 3.697168e-02 0.000000e+00 0.000000e+00
1
Step 177000
Ar 4.100944e-03 0.000000e+00 0.000000e+00
1
Step 178000
Ar 6.044988e-02 0.000000e+00 0.000000e+00
1
Step 179000
Ar 5.320357e-02 0.000000e+00 0.000000e+00
1
Step 180000
Ar -4.917012e-03 0.000000e+00 0.000000e+00
1
Step 181000
Ar 1.863500e-02 0.000000e+00 0.000000e+00
1
Step 182000
Ar -1.501593e-02 0.000000e+00 0.000000e+00
1
Step 183000
Ar 3.086819e-02 0.000000e+00 0.000000e+00
1
Step 184000
Ar -2.831535e-02 0.000000e+00 0.000000e+00
1
Step 185000
Ar 1.959559e-03 0.000000e+00 0.000000e+00
1
Step 186000
Ar -2.176412e-02 0.000000e+00 0.000000e+00
1
Step 187000
Ar 2.376258e-03 0.000000e+00 0.000000e+00
1
Step 188000
Ar 3.116255e-02 0.000000e+00 0.000000e+00
1
Step 189000
Ar 1.200106e-02 0.000000e+00 0.000000e+00
1
Step 190000
Ar 1.656649e-02 0.000000e+00 0.000000e+00
1
Step 191000
Ar 2.381943e-03 0.000000e+00 0.000000e+00
1
Step 192000
Ar -3.976273e-02 0.000000e+00 0.000000e+00
1
Step 193000
Ar -3.985856e-02 0.000000e+00 0.000000e+00
1
Step 194000
Ar 2.537831e-02 0.000000e+00 0.000000e+00
1
Step 195000
Ar 4.982300e-02 0.000000e+00 0.000000e+00
1
Step 196000
Ar -2.958690e-02 0.000000e+00 0.000000e+00
1
Step 197000
Ar -1.290170e-02 0.000000e+00 0.000000e+00
1
Step 198000
Ar -4.644780e-03 0.000000e+00 0.000000e+00
1
Step 199000
Ar -6.582118e-02 0.000000e+00 0.000000e+00
1
Step 200000
Ar -7.193949e-02 0.000000e+00 0.000000e+00
1
Step 201000
Ar 3.095987e-02 0.000000e+00 0.000000e+00
1
Step 202000
Ar -1.848867e-02 0.000000e+00 0.000000e+00
1
Step 203000
Ar -3.175369e-02 0.000000e+00 0.000000e+00
1
Step 204000
Ar -1.457687e-02 0.000000e+00 0.000000e+00
1
Step 205000
Ar -9.390508e-03 0.000000e+00 0.000000e+00
1
Step 206000
Ar -3.172137e-02 0.000000e+00 0.000000e+00
1
Step 207000
Ar 3.349368e-02 0.000000e+00 0.000000e+00
1
Step 208000
Ar 5.555278e-02 0.000000e+00 0.000000e+00
1
Step 209000
Ar 3.438981e-02 0.000000e+00 0.000000e+00
1
Step 210000
Ar -3.673189e-02 0.000000e+00 0.000000e+00
1
Step 211000
Ar 1.870830e-02 0.000000e+00 0.000000e+00
1
Step 212000
Ar 3.119116e-02 0.000000e+00 0.000000e+00
1
Step 213000
Ar 4.399468e-02 0.000000e+00 0.000000e+00
1
Step 214000
Ar -1.758384e-02 0.000000e+00 0.000000e+00
1
Step 215000
Ar -1.976933e-02 0.000000e+00 0.000000e+00
1
Step 216000
Ar 2.933597e-02 0.000000e+00 0.000000e+00
1
Step 217000
Ar -3.534159e-03 0.000000e+00 0.000000e+00
1
Step 218000
Ar 3.916436e-03 0.000000e+00 0.000000e+00
1
Step 219000
Ar -2.536491e-02 0.000000e+00 0.000000e+00
1
Step 220000
Ar -4.166790e-02 0.000000e+00 0.000000e+00
1
Step 221000
Ar -4.085207e-03 0.000000e+00 0.000000e+00
1
Step 222000
Ar -2.197501e-02 0.000000e+00 0.000000e+00
1
Step 223000
Ar -6.651653e-03 0.000000e+00 0.000000e+00
1
Step 224000
Ar 2.035651e-02 0.000000e+00 0.000000e+00
1
Step 225000
Ar -1.484108e-02 0.000000e+00 0.000000e+00
1
Step 226000
Ar -2.627076e-02 0.000000e+00 0.000000e+00
1
Step 227000
Ar 4.659838e-02 0.000000e+00 0.000000e+00
1
Step 228000
Ar -4.190220e-03 0.000000e+00 0.000000e+00
1
Step 229000
Ar 2.579193e-02 0.000000e+00 0.000000e+00
1
Step 230000
Ar -5.395658e-03 0.000000e+00 0.000000e+00
1
Step 231000
Ar 5.722191e-02 0.000000e+00 0.000000e+00
1
Step 232000
Ar -9.734110e-03 0.000000e+00 0.000000e+00
1
Step 233000
Ar -4.985557e-02 0.000000e+00 0.000000e+00
1
Step 234000
Ar -1.957562e-02 0.000000e+00 0.000000e+00
1
Step 235000
Ar -1.757684e-02 0.000000e+00 0.000000e+00
1
Step 236000
Ar -7.853851e-03 0.000000e+00 0.000000e+00
1
Step 237000
Ar -2.232413e-02 0.000000e+00 0.000000e+00
1
Step 238000
Ar 9.828450e-03 0.000000e+00 0.000000e+00
1
Step 239000
Ar 1.781066e-02 0.000000e+00 0.000000e+00
1
Step 240000
Ar 7.025252e-04 0.000000e+00 0.000000e+00
1
Step 241000
Ar 3.166935e-02 0.000000e+00 0.000000e+00
1
Step 242000
Ar 4.165003e-03 0.000000e+00 0.000000e+00
1
Step 243000
Ar -4.654450e-02 0.000000e+00 0.000000e+00
1
Step 244000
Ar 2.439310e-03 0.000000e+00 0.000000e+00
1
Step 245000
Ar 4.147399e-03 0.000000e+00 0.000000e+00
1
Step 246000
Ar 4.660687e-02 0.000000e+00 0.000000e+00
1
Step 247000
Ar -2.916146e-02 0.000000e+00 0.000000e+00
1
Step 248000
Ar -1.391455e-02 0.000000e+00 0.000000e+00
1
Step 249000
Ar 1.852485e-02 0.000000e+00 0.000000e+00
1
Step 250000
Ar -6.232799e-02 0.000000e+00 0.000000e+00
1
Step 251000
Ar -6.418605e-03 0.000000e+00 0.000000e+00
1
Step 252000
Ar 5.085518e-03 0.000000e+00 0.000000e+00
1
Step 253000
Ar -1.945822e-02 0.000000e+00 0.000000e+00
1
Step 254000
Ar 2.012149e-02 0.000000e+00 0.000000e+00
1
Step 255000
Ar 2.015814e-02 0.000000e+00 0.000000e+00
1
Step 256000
Ar -2.816643e-02 0.000000e+00 0.000000e+00
1
Step 257000
Ar -4.850720e-02 0.000000e+00 0.000000e+00
1
Step 258000
Ar -1.287754e-02 0.000000e+00 0.000000e+00
1
Step 259000
Ar 4.788881e-02 0.000000e+00 0.000000e+00
1
Step 260000
Ar -2.643052e-03 0.000000e+00 0.000000e+00
1
Step 261000
Ar -4.852885e-03 0.000000e+00 0.000000e+00
1
Step 262000
Ar -3.093870e-02 0.000000e+00 0.000000e+00
1
Step 263000
Ar -1.297800e-02 0.000000e+00 0.000000e+00
1
Step 264000
Ar 3.453762e-02 0.000000e+00 0.000000e+00
1
Step 265000
Ar 2.869876e-02 0.000000e+00 0.000000e+00
1
Step 266000
Ar -1.080477e-02 0.000000e+00 0.000000e+00
1
Step 267000
Ar -1.335666e-02 0.000000e+00 0.000000e+00
1
Step 268000
Ar -3.197854e-03 0.000000e+00 0.000000e+00
1
Step 269000
Ar 2.077086e-02 0.000000e+00 0.000000e+00
1
Step 270000
Ar 1.951337e-02 0.000000e+00 0.000000e+00
1
Step 271000
Ar -3.113185e-02 0.000000e+00 0.000000e+00
1
Step 272000
Ar -4.742902e-02 0.000000e+00 0.000000e+00
1
Step 273000
Ar -9.498104e-03 0.000000e+00 0.000000e+00
1
Step 274000
Ar 1.806379e-02 0.000000e+00 0.000000e+00
1
Step 275000
Ar -3.689168e-02 0.000000e+00 0.000000e+00
1
Step 276000
Ar -6.382458e-02 0.000000e+00 0.000000e+00
1
Step 277000
Ar 2.581565e-02 0.000000e+00 0.000000e+00
1
Step 278000
Ar 3.347643e-02 0.000000e+00 0.000000e+00
1
Step 279000
Ar -1.076372e-02 0.000000e+00 0.000000e+00
1
Step 280000
Ar -4.172475e-02 0.000000e+00 0.000000e+00
1
Step 281000
Ar 8.646513e-02 0.000000e+00 0.000000e+00
1
Step 282000
Ar 7.513138e-03 0.000000e+00 0.000000e+00
1
Step 283000
Ar -9.685010e-03 0.000000e+00 0.000000e+00
1
Step 284000
Ar 2.260158e-02 0.000000e+00 0.000000e+00
1
Step 285000
Ar -3.911713e-02 0.000000e+00 0.000000e+00
1
Step 286000
Ar -4.167648e-02 0.000000e+00 0.000000e+00
1
Step 287000
Ar 5.935313e-03 0.000000e+00 0.000000e+00
1
Step 288000
Ar 1.248593e-02 0.000000e+00 0.000000e+00
1
Step 289000
Ar -5.870704e-02 0.000000e+00 0.000000e+00
1
Step 290000
Ar -5.331962e-02 0.000000e+00 0.000000e+00
1
Step 291000
Ar 5.487197e-02 0.000000e+00 0.000000e+00
1
Step 292000
Ar -1.944132e-02 0.000000e+00 0.000000e+00
1
Step 293000
Ar 4.953991e-02 0.000000e+00 0.000000e+00
1
Step 294000
Ar -2.795890e-03 0.000000e+00 0.000000e+00
1
Step 295000
Ar -2.929280e-02 0.000000e+00 0.000000e+00
1
Step 296000
Ar -1.920503e-02 0.000000e+00 0.000000e+00
1
Step 297000
Ar 6.986405e-03 0.000000e+00 0.000000e+00
1
Step 298000
Ar -7.421849e-03 0.000000e+00 0.000000e+00
1
Step 299000
Ar -1.332250e-02 0.000000e+00 0.000000e+00
1
Step 300000
Ar -2.683480e-02 0.000000e+00 0.000000e+00
1
Step 301000
Ar -1.014044e-02 0.000000e+00 0.000000e+00
1
Step 302000
Ar 4.327523e-02 0.000000e+00 0.000000e+00
1
Step 303000
Ar 5.633079e-04 0.000000e+00 0.000000e+00
1
Step 304000
Ar 2.980729e-02 0.000000e+00 0.000000e+00
1
Step 305000
Ar -1.407867e-02 0.000000e+00 0.000000e+00
1
Step 306000
Ar -3.479172e-03 0.000000e+00 0.000000e+00
1
Step 307000
Ar -4.271205e-02 0.000000e+00 0.000000e+00
1
Step 308000
Ar 1.549306e-02 0.000000e+00 0.000000e+00
1
Step 309000
Ar 4.447230e-02 0.000000e+00 0.000000e+00
1
Step 310000
Ar -1.817600e-02 0.000000e+00 0.000000e+00
1
Step 311000
Ar -3.732670e-02 0.000000e+00 0.000000e+00
1
Step 312000
Ar -1.327203e-02 0.000000e+00 0.000000e+00
1
Step 313000
Ar 5.767820e-03 0.000000e+00 0.000000e+00
1
Step 314000
Ar -3.535321e-02 0.000000e+00 0.000000e+00
1
Step 315000
Ar -3.390634e-02 0.000000e+00 0.000000e+00
1
Step 316000
Ar -9.446777e-03 0.000000e+00 0.000000e+00
1
Step 317000
Ar 3.192701e-02 0.000000e+00 0.000000e+00
1
Step 318000
Ar -3.861913e-02 0.000000e+00 0.000000e+00
1
Step 319000
Ar -3.258446e-02 0.000000e+00 0.000000e+00
1
Step 320000
Ar -2.835210e-03 0.000000e+00 0.000000e+00
1
Step 321000
Ar 3.368080e-02 0.000000e+00 0.000000e+00
1
Step 322000
Ar -3.268135e-02 0.000000e+00 0.000000e+00
1
Step 323000
Ar 1.705773e-02 0.000000e+00 0.000000e+00
1
Step 324000
Ar -5.795490e-02 0.000000e+00 0.000000e+00
1
Step 325000
Ar -1.335808e-02 0.000000e+00 0.000000e+00
1
Step 326000
Ar -5.209162e-02 0.000000e+00 0.000000e+00
1
Step 327000
Ar 4.758534e-03 0.000000e+00 0.000000e+00
1
Step 328000
Ar -2.443542e-02 0.000000e+00 0.000000e+00
1
Step 329000
Ar 1.902380e-02 0.000000e+00 0.000000e+00
1
Step 330000
Ar -5.130382e-03 0.000000e+00 0.000000e+00
1
Step 331000
Ar -8.570272e-03 0.000000e+00 0.000000e+00
1
Step 332000
Ar 1.783170e-02 0.000000e+00 0.000000e+00
1
Step 333000
Ar -3.940180e-02 0.000000e+00 0.000000e+00
1
Step 334000
Ar -2.634792e-02 0.000000e+00 0.000000e+00
1
Step 335000
Ar -2.569628e-02 0.000000e+00 0.000000e+00
1
Step 336000
Ar 2.682919e-02 0.000000e+00 0.000000e+00
1
Step 337000
Ar 2.171126e-02 0.000000e+00 0.000000e+00
1
Step 338000
Ar 1.531348e-02 0.000000e+00 0.000000e+00
1
Step 339000
Ar -4.631327e-02 0.000000e+00 0.000000e+00
1
Step 340000
Ar 1.334532e-02 0.000000e+00 0.000000e+00
1
Step 341000
Ar -9.751040e-03 0.000000e+00 0.000000e+00
1
Step 342000
Ar -2.972521e-03 0.000000e+00 0.000000e+00
1
Step 343000
Ar -3.216413e-02 0.000000e+00 0.000000e+00
1
Step 344000
Ar -4.382264e-02 0.000000e+00 0.000000e+00
1
Step 345000
Ar -4.011384e-04 0.000000e+00 0.000000e+00
1
Step 346000
Ar -3.377500e-02 0.000000e+00 0.000000e+00
1
Step 347000
Ar -1.535271e-02 0.000000e+00 0.000000e+00
1
Step 348000
Ar 5.109707e-02 0.000000e+00 0.000000e+00
1
Step 349000
Ar 2.153166e-02 0.000000e+00 0.000000e+00
1
Step 350000
Ar -2.898144e-02 0.000000e+00 0.000000e+00
1
Step 351000
Ar 4.274986e-02 0.000000e+00 0.000000e+00
1
Step 352000
Ar 2.335663e-02 0.000000e+00 0.000000e+00
1
Step 353000
Ar 2.222439e-02 0.000000e+00 0.000000e+00
1
Step 354000
Ar 2.383168e-02 0.000000e+00 0.000000e+00
1
Step 355000
Ar 1.296494e-02 0.000000e+00 0.000000e+00
1
Step 356000
Ar -1.925990e-02 0.000000e+00 0.000000e+00
1
Step 357000
Ar -1.042654e-02 0.000000e+00 0.000000e+00
1
Step 358000
Ar 6.502314e-03 0.000000e+00 0.000000e+00
1
Step 359000
Ar -2.768806e-02 0.000000e+00 0.000000e+00
1
Step 360000
Ar -6.375433e-03 0.000000e+00 0.000000e+00
1
Step 361000
Ar -9.489753e-03 0.000000e+00 0.000000e+00
1
Step 362000
Ar -4.876992e-02 0.000000e+00 0.000000e+00
1
Step 363000
Ar -4.472834e-02 0.000000e+00 0.000000e+00
1
Step 364000
Ar 7.919124e-02 0.000000e+00 0.000000e+00
1
Step 365000
Ar -4.772666e-03 0.000000e+00 0.000000e+00
1
Step 366000
Ar 3.892589e-02 0.000000e+00 0.000000e+00
1
Step 367000
Ar -4.827873e-02 0.000000e+00 0.000000e+00
1
Step 368000
Ar -6.075681e-03 0.000000e+00 0.000000e+00
1
Step 369000
Ar 2.309225e-02 0.000000e+00 0.000000e+00
1
Step 370000
Ar 1.120465e-02 0.000000e+00 0.000000e+00
1
Step 371000
Ar 4.994737e-02 0.000000e+00 0.000000e+00
1
Step 372000
Ar 4.399853e-02 0.000000e+00 0.000000e+00
1
Step 373000
Ar 1.423601e-02 0.000000e+00 0.000000e+00
1
Step 374000
Ar 1.662043e-02 0.000000e+00 0.000000e+00
1
Step 375000
Ar -4.087350e-02 0.000000e+00 0.000000e+00
1
Step 376000
Ar -7.798998e-02 0.000000e+00 0.000000e+00
1
Step 377000
Ar -5.828623e-02 0.000000e+00 0.000000e+00
1
Step 378000
Ar -7.431771e-02 0.000000e+00 0.000000e+00
1
Step 379000
Ar 8.587397e-04 0.000000e+00 0.000000e+00
1
Step 380000
Ar -2.661139e-03 0.000000e+00 0.000000e+00
1
Step 381000
Ar 3.543217e-02 0.000000e+00 0.000000e+00
1
Step 382000
Ar -2.421802e-02 0.000000e+00 0.000000e+00
1
Step 383000
Ar 1.211148e-02 0.000000e+00 0.000000e+00
1
Step 384000
Ar -2.205292e-02 0.000000e+00 0.000000e+00
1
Step 385000
Ar 1.440654e-02 0.000000e+00 0.000000e+00
1
Step 386000
Ar -4.785493e-02 0.000000e+00 0.000000e+00
1
Step 387000
Ar -1.061308e-02 0.000000e+00 0.000000e+00
1
Step 388000
Ar -5.533623e-03 0.000000e+00 0.000000e+00
1
Step 389000
Ar 2.660155e-02 0.000000e+00 0.000000e+00
1
Step 390000
Ar 1.889546e-02 0.000000e+00 0.000000e+00
1
Step 391000
Ar -5.573056e-02 0.000000e+00 0.000000e+00
1
Step 392000
Ar 3.861060e-02 0.000000e+00 0.000000e+00
1
Step 393000
Ar -2.135822e-02 0.000000e+00 0.000000e+00
1
Step 394000
Ar 1.719090e-02 0.000000e+00 0.000000e+00
1
Step 395000
Ar 1.421928e-02 0.000000e+00 0.000000e+00
1
Step 396000
Ar 4.587248e-02 0.000000e+00 0.000000e+00
1
Step 397000
Ar -9.335637e-03 0.000000e+00 0.000000e+00
1
Step 398000
Ar 5.735710e-02 0.000000e+00 0.000000e+00
1
Step 399000
Ar 1.266332e-02 0.000000e+00 0.000000e+00
1
Step 400000
Ar 1.462198e-02 0.000000e+00 0.000000e+00
1
Step 401000
Ar 2.721725e-02 0.000000e+00 0.000000e+00
1
Step 402000
Ar -1.365445e-02 0.000000e+00 0.000000e+00
1
Step 403000
Ar 2.215363e-02 0.000000e+00 0.000000e+00
1
Step 404000
Ar -2.080087e-02 0.000000e+00 0.000000e+00
1
Step 405000
Ar 6.878687e-02 0.000000e+00 0.000000e+00
1
Step 406000
Ar -4.406363e-02 0.000000e+00 0.000000e+00
1
Step 407000
Ar 4.875201e-02 0.000000e+00 0.000000e+00
1
Step 408000
Ar 2.609971e-02 0.000000e+00 0.000000e+00
1
Step 409000
Ar -1.258425e-02 0.000000e+00 0.000000e+00
1
Step 410000
Ar -4.758797e-02 0.000000e+00 0.000000e+00
1
Step 411000
Ar 1.164687e-02 0.000000e+00 0.000000e+00
1
Step 412000
Ar -5.510646e-02 0.000000e+00 0.000000e+00
1
Step 413000
Ar 5.417606e-03 0.000000e+00 0.000000e+00
1
Step 414000
Ar 3.732637e-02 0.000000e+00 0.000000e+00
1
Step 415000
Ar 1.096680e-02 0.000000e+00 0.000000e+00
1
Step 416000
Ar 7.143922e-02 0.000000e+00 0.000000e+00
1
Step 417000
Ar -1.028597e-02 0.000000e+00 0.000000e+00
1
Step 418000
Ar -1.102042e-03 0.000000e+00 0.000000e+00
1
Step 419000
Ar 3.098764e-02 0.000000e+00 0.000000e+00
1
Step 420000
Ar -3.273434e-02 0.000000e+00 0.000000e+00
1
Step 421000
Ar 1.875546e-02 0.000000e+00 0.000000e+00
1
Step 422000
Ar -8.064324e-02 0.000000e+00 0.000000e+00
1
Step 423000
Ar -2.325179e-02 0.000000e+00 0.000000e+00
1
Step 424000
Ar -3.501435e-02 0.000000e+00 0.000000e+00
1
Step 425000
Ar -2.645594e-02 0.000000e+00 0.000000e+00
1
Step 426000
Ar -3.733290e-02 0.000000e+00 0.000000e+00
1
Step 427000
Ar 3.810657e-02 0.000000e+00 0.000000e+00
1
Step 428000
Ar 2.236228e-02 0.000000e+00 0.000000e+00
1
Step 429000
Ar 1.065277e-02 0.000000e+00 0.000000e+00
1
Step 430000
Ar 5.762179e-02 0.000000e+00 0.000000e+00
1
Step 431000
Ar -2.931909e-02 0.000000e+00 0.000000e+00
1
Step 432000
Ar 3.316368e-03 0.000000e+00 0.000000e+00
1
Step 433000
Ar 6.190761e-02 0.000000e+00 0.000000e+00
1
Step 434000
Ar -1.405704e-02 0.000000e+00 0.000000e+00
1
Step 435000
Ar -3.936950e-02 0.000000e+00 0.000000e+00
1
Step 436000
Ar -7.412517e-03 0.000000e+00 0.000000e+00
1
Step 437000
Ar 5.369028e-02 0.000000e+00 0.000000e+00
1
Step 438000
Ar -4.296916e-03 0.000000e+00 0.000000e+00
1
Step 439000
Ar 1.322908e-02 0.000000e+00 0.000000e+00
1
Step 440000
Ar -1.145029e-02 0.000000e+00 0.000000e+00
1
Step 441000
Ar 3.291276e-02 0.000000e+00 0.000000e+00
1
Step 442000
Ar -5.322043e-03 0.000000e+00 0.000000e+00
1
Step 443000
Ar -3.666298e-02 0.000000e+00 0.000000e+00
1
Step 444000
Ar -3.335693e-03 0.000000e+00 0.000000e+00
1
Step 445000
Ar 1.069344e-02 0.000000e+00 0.000000e+00
1
Step 446000
Ar 1.908791e-03 0.000000e+00 0.000000e+00
1
Step 447000
Ar -1.601413e-02 0.000000e+00 0.000000e+00
1
Step 448000
Ar -3.181098e-02 0.000000e+00 0.000000e+00
1
Step 449000
Ar -7.467040e-02 0.000000e+00 0.000000e+00
1
Step 450000
Ar 9.280882e-03 0.000000e+00 0.000000e+00
1
Step 451000
Ar -7.690204e-02 0.000000e+00 0.000000e+00
1
Step 452000
Ar 6.957681e-02 0.000000e+00 0.000000e+00
1
Step 453000
Ar -2.366621e-02 0.000000e+00 0.000000e+00
1
Step 454000
Ar -5.479720e-02 0.000000e+00 0.000000e+00
1
Step 455000
Ar -5.497539e-03 0.000000e+00 0.000000e+00
1
Step 456000
Ar 5.114245e-02 0.000000e+00 0.000000e+00
1
Step 457000
Ar -1.993806e-02 0.000000e+00 0.000000e+00
1
Step 458000
Ar 1.093146e-02 0.000000e+00 0.000000e+00
1
Step 459000
Ar -2.180638e-02 0.000000e+00 0.000000e+00
1
Step 460000
Ar 2.051398e-03 0.000000e+00 0.000000e+00
1
Step 461000
Ar 1.574929e-02 0.000000e+00 0.000000e+00
1
Step 462000
Ar -1.096619e-02 0.000000e+00 0.000000e+00
1
Step 463000
Ar -9.695360e-02 0.000000e+00 0.000000e+00
1
Step 464000
Ar -1.071121e-02 0.000000e+00 0.000000e+00
1
Step 465000
Ar 6.812589e-03 0.000000e+00 0.000000e+00
1
Step 466000
Ar -7.093848e-02 0.000000e+00 0.000000e+00
1
Step 467000
Ar -3.463581e-03 0.000000e+00 0.000000e+00
1
Step 468000
Ar -4.273100e-02 0.000000e+00 0.000000e+00
1
Step 469000
Ar 2.994374e-02 0.000000e+00 0.000000e+00
1
Step 470000
Ar -3.261077e-02 0.000000e+00 0.000000e+00
1
Step 471000
Ar -1.023378e-02 0.000000e+00 0.000000e+00
1
Step 472000
Ar 3.812061e-02 0.000000e+00 0.000000e+00
1
Step 473000
Ar -1.096309e-02 0.000000e+00 0.000000e+00
1
Step 474000
Ar -3.626046e-02 0.000000e+00 0.000000e+00
1
Step 475000
Ar 9.411989e-03 0.000000e+00 0.000000e+00
1
Step 476000
Ar -5.574922e-03 0.000000e+00 0.000000e+00
1
Step 477000
Ar -6.561615e-03 0.000000e+00 0.000000e+00
1
Step 478000
Ar -5.022666e-02 0.000000e+00 0.000000e+00
1
Step 479000
Ar 1.646309e-02 0.000000e+00 0.000000e+00
1
Step 480000
Ar 2.512881e-02 0.000000e+00 0.000000e+00
1
Step 481000
Ar -2.666988e-02 0.000000e+00 0.000000e+00
1
Step 482000
Ar 1.679267e-02 0.000000e+00 0.000000e+00
1
Step 483000
Ar -4.115443e-02 0.000000e+00 0.000000e+00
1
Step 484000
Ar 5.106947e-02 0.000000e+00 0.000000e+00
1
Step 485000
Ar 2.994749e-02 0.000000e+00 0.000000e+00
1
Step 486000
Ar 1.501444e-02 0.000000e+00 0.000000e+00
1
Step 487000
Ar 4.322496e-02 0.000000e+00 0.000000e+00
1
Step 488000
Ar 1.771641e-02 0.000000e+00 0.000000e+00
1
Step 489000
Ar 2.243538e-02 0.000000e+00 0.000000e+00
1
Step 490000
Ar -2.745154e-02 0.000000e+00 0.000000e+00
1
Step 491000
Ar 3.386285e-02 0.000000e+00 0.000000e+00
1
Step 492000
Ar 4.391374e-02 0.000000e+00 0.000000e+00
1
Step 493000
Ar 5.702657e-02 0.000000e+00 0.000000e+00
1
Step 494000
Ar -1.518215e-02 0.000000e+00 0.000000e+00
1
Step 495000
Ar 4.445893e-02 0.000000e+00 0.000000e+00
1
Step 496000
Ar -1.547583e-02 0.000000e+00 0.000000e+00
1
Step 497000
Ar -3.897691e-02 0.000000e+00 0.000000e+00
1
Step 498000
Ar -9.956113e-03 0.000000e+00 0.000000e+00
1
Step 499000
Ar -2.749165e-02 0.000000e+00 0.000000e+00
1
Step 500000
Ar -4.414216e-02 0.000000e+00 0.000000e+00
1
Step 501000
Ar -1.467699e-02 0.000000e+00 0.000000e+00
1
Step 502000
Ar -1.300029e-02 0.000000e+00 0.000000e+00
1
Step 503000
Ar -3.585685e-03 0.000000e+00 0.000000e+00
1
Step 504000
Ar 3.179650e-02 0.000000e+00 0.000000e+00
1
Step 505000
Ar -3.626964e-02 0.000000e+00 0.000000e+00
1
Step 506000
Ar -4.235075e-02 0.000000e+00 0.000000e+00
1
Step 507000
Ar -6.691007e-03 0.000000e+00 0.000000e+00
1
Step 508000
Ar 1.032583e-02 0.000000e+00 0.000000e+00
1
Step 509000
Ar 5.689723e-02 0.000000e+00 0.000000e+00
1
Step 510000
Ar -3.222471e-02 0.000000e+00 0.000000e+00
1
Step 511000
Ar -3.525536e-02 0.000000e+00 0.000000e+00
1
Step 512000
Ar -7.617743e-03 0.000000e+00 0.000000e+00
1
Step 513000
Ar 1.584521e-02 0.000000e+00 0.000000e+00
1
Step 514000
Ar -3.022200e-02 0.000000e+00 0.000000e+00
1
Step 515000
Ar -7.821799e-03 0.000000e+00 0.000000e+00
1
Step 516000
Ar -4.421074e-02 0.000000e+00 0.000000e+00
1
Step 517000
Ar -3.861175e-03 0.000000e+00 0.000000e+00
1
Step 518000
Ar 7.871633e-03 0.000000e+00 0.000000e+00
1
Step 519000
Ar -1.718923e-02 0.000000e+00 0.000000e+00
1
Step 520000
Ar -2.636986e-02 0.000000e+00 0.000000e+00
1
Step 521000
Ar -1.449069e-02 0.000000e+00 0.000000e+00
1
Step 522000
Ar 1.139198e-02 0.000000e+00 0.000000e+00
1
Step 523000
Ar 3.299520e-02 0.000000e+00 0.000000e+00
1
Step 524000
Ar 6.548415e-02 0.000000e+00 0.000000e+00
1
Step 525000
Ar 5.048338e-02 0.000000e+00 0.000000e+00
1
Step 526000
Ar -1.267720e-02 0.000000e+00 0.000000e+00
1
Step 527000
Ar -1.171386e-02 0.000000e+00 0.000000e+00
1
Step 528000
Ar -1.369237e-03 0.000000e+00 0.000000e+00
1
Step 529000
Ar -2.073329e-02 0.000000e+00 0.000000e+00
1
Step 530000
Ar 2.738361e-02 0.000000e+00 0.000000e+00
1
Step 531000
Ar -1.247154e-02 0.000000e+00 0.000000e+00
1
Step 532000
Ar -4.325425e-02 0.000000e+00 0.000000e+00
1
Step 533000
Ar -1.072438e-02 0.000000e+00 0.000000e+00
1
Step 534000
Ar 4.711297e-03 0.000000e+00 0.000000e+00
1
Step 535000
Ar -3.250882e-02 0.000000e+00 0.000000e+00
1
Step 536000
Ar 3.428446e-02 0.000000e+00 0.000000e+00
1
Step 537000
Ar 2.592438e-02 0.000000e+00 0.000000e+00
1
Step 538000
Ar 2.279310e-02 0.000000e+00 0.000000e+00
1
Step 539000
Ar -4.269859e-03 0.000000e+00 0.000000e+00
1
Step 540000
Ar -7.927422e-03 0.000000e+00 0.000000e+00
1
Step 541000
Ar -3.233574e-02 0.000000e+00 0.000000e+00
1
Step 542000
Ar 4.536677e-02 0.000000e+00 0.000000e+00
1
Step 543000
Ar -6.710491e-02 0.000000e+00 0.000000e+00
1
Step 544000
Ar 3.217439e-02 0.000000e+00 0.000000e+00
1
Step 545000
Ar 2.482378e-02 0.000000e+00 0.000000e+00
1
Step 546000
Ar 1.393146e-02 0.000000e+00 0.000000e+00
1
Step 547000
Ar -2.663674e-02 0.000000e+00 0.000000e+00
1
Step 548000
Ar 5.045246e-02 0.000000e+00 0.000000e+00
1
Step 549000
Ar 1.679391e-02 0.000000e+00 0.000000e+00
1
Step 550000
Ar -4.233182e-02 0.000000e+00 0.000000e+00
1
Step 551000
Ar 3.639697e-02 0.000000e+00 0.000000e+00
1
Step 552000
Ar -8.713004e-03 0.000000e+00 0.000000e+00
1
Step 553000
Ar 3.450339e-02 0.000000e+00 0.000000e+00
1
Step 554000
Ar 1.045835e-02 0.000000e+00 0.000000e+00
1
Step 555000
Ar 3.598776e-02 0.000000e+00 0.000000e+00
1
Step 556000
Ar 6.533454e-02 0.000000e+00 0.000000e+00
1
Step 557000
Ar -4.028033e-02 0.000000e+00 0.000000e+00
1
Step 558000
Ar 4.743971e-03 0.000000e+00 0.000000e+00
1
Step 559000
Ar -4.100886e-02 0.000000e+00 0.000000e+00
1
Step 560000
Ar -7.521820e-03 0.000000e+00 0.000000e+00
1
Step 561000
Ar -3.113815e-03 0.000000e+00 0.000000e+00
1
Step 562000
Ar 2.370955e-02 0.000000e+00 0.000000e+00
1
Step 563000
Ar 1.143623e-02 0.000000e+00 0.000000e+00
1
Step 564000
Ar 3.266671e-03 0.000000e+00 0.000000e+00
1
Step 565000
Ar -1.060481e-02 0.000000e+00 0.000000e+00
1
Step 566000
Ar -7.583361e-02 0.000000e+00 0.000000e+00
1
Step 567000
Ar 4.303158e-02 0.000000e+00 0.000000e+00
1
Step 568000
Ar -7.193380e-03 0.000000e+00 0.000000e+00
1
Step 569000
Ar -3.065708e-02 0.000000e+00 0.000000e+00
1
Step 570000
Ar 1.967800e-03 0.000000e+00 0.000000e+00
1
Step 571000
Ar 1.885418e-02 0.000000e+00 0.000000e+00
1
Step 572000
Ar -4.680459e-03 0.000000e+00 0.000000e+00
1
Step 573000
Ar -4.041550e-02 0.000000e+00 0.000000e+00
1
Step 574000
Ar -3.045528e-02 0.000000e+00 0.000000e+00
1
Step 575000
Ar 4.764697e-02 0.000000e+00 0.000000e+00
1
Step 576000
Ar -3.320118e-02 0.000000e+00 0.000000e+00
1
Step 577000
Ar -3.897058e-02 0.000000e+00 0.000000e+00
1
Step 578000
Ar -5.539385e-03 0.000000e+00 0.000000e+00
1
Step 579000
Ar 5.808053e-02 0.000000e+00 0.000000e+00
1
Step 580000
Ar -2.452900e-02 0.000000e+00 0.000000e+00
1
Step 581000
Ar 1.121253e-02 0.000000e+00 0.000000e+00
1
Step 582000
Ar -4.226383e-03 0.000000e+00 0.000000e+00
1
Step 583000
Ar 4.388331e-02 0.000000e+00 0.000000e+00
1
Step 584000
Ar -6.791333e-03 0.000000e+00 0.000000e+00
1
Step 585000
Ar -9.914299e-03 0.000000e+00 0.000000e+00
1
Step 586000
Ar -1.430520e-02 0.000000e+00 0.000000e+00
1
Step 587000
Ar 2.073617e-02 0.000000e+00 0.000000e+00
1
Step 588000
Ar 2.238218e-02 0.000000e+00 0.000000e+00
1
Step 589000
Ar 2.180465e-03 0.000000e+00 0.000000e+00
1
Step 590000
Ar 4.865163e-03 0.000000e+00 0.000000e+00
1
Step 591000
Ar 1.347271e-02 0.000000e+00 0.000000e+00
1
Step 592000
Ar 3.192304e-02 0.000000e+00 0.000000e+00
1
Step 593000
Ar -1.509418e-02 0.000000e+00 0.000000e+00
1
Step 594000
Ar 2.211961e-02 0.000000e+00 0.000000e+00
1
Step 595000
Ar 1.783841e-02 0.000000e+00 0.000000e+00
1
Step 596000
Ar -2.327365e-02 0.000000e+00 0.000000e+00
1
Step 597000
Ar 2.620317e-02 0.000000e+00 0.000000e+00
1
Step 598000
Ar -1.859417e-02 0.000000e+00 0.000000e+00
1
Step 599000
Ar 2.374703e-02 0.000000e+00 0.000000e+00
1
Step 600000
Ar -1.982285e-02 0.000000e+00 0.000000e+00
1
Step 601000
Ar 7.424545e-03 0.000000e+00 0.000000e+00
1
Step 602000
Ar 2.319708e-02 0.000000e+00 0.000000e+00
1
Step 603000
Ar 5.461757e-04 0.000000e+00 0.000000e+00
1
Step 604000
Ar 2.792039e-02 0.000000e+00 0.000000e+00
1
Step 605000
Ar -2.802245e-02 0.000000e+00 0.000000e+00
1
Step 606000
Ar 5.922468e-03 0.000000e+00 0.000000e+00
1
Step 607000
Ar 4.356717e-02 0.000000e+00 0.000000e+00
1
Step 608000
Ar -1.642856e-02 0.000000e+00 0.000000e+00
1
Step 609000
Ar -3.276894e-02 0.000000e+00 0.000000e+00
1
Step 610000
Ar -2.360319e-03 0.000000e+00 0.000000e+00
1
Step 611000
Ar -3.101040e-02 0.000000e+00 0.000000e+00
1
Step 612000
Ar 1.367793e-03 0.000000e+00 0.000000e+00
1
Step 613000
Ar -8.055341e-03 0.000000e+00 0.000000e+00
1
Step 614000
Ar -2.395154e-02 0.000000e+00 0.000000e+00
1
Step 615000
Ar 2.754088e-02 0.000000e+00 0.000000e+00
1
Step 616000
Ar -1.825344e-02 0.000000e+00 0.000000e+00
1
Step 617000
Ar -3.492656e-02 0.000000e+00 0.000000e+00
1
Step 618000
Ar -1.856151e-02 0.000000e+00 0.000000e+00
1
Step 619000
Ar 2.066574e-02 0.000000e+00 0.000000e+00
1
Step 620000
Ar -4.346034e-02 0.000000e+00 0.000000e+00
1
Step 621000
Ar 1.464895e-03 0.000000e+00 0.000000e+00
1
Step 622000
Ar -1.694760e-02 0.000000e+00 0.000000e+00
1
Step 623000
Ar -6.172656e-02 0.000000e+00 0.000000e+00
1
Step 624000
Ar 4.789075e-02 0.000000e+00 0.000000e+00
1
Step 625000
Ar 1.996883e-02 0.000000e+00 0.000000e+00
1
Step 626000
Ar 2.716623e-02 0.000000e+00 0.000000e+00
1
Step 627000
Ar -1.727951e-02 0.000000e+00 0.000000e+00
1
Step 628000
Ar -2.529332e-02 0.000000e+00 0.000000e+00
1
Step 629000
Ar -1.279851e-02 0.000000e+00 0.000000e+00
1
Step 630000
Ar 7.354458e-03 0.000000e+00 0.000000e+00
1
Step 631000
Ar -2.887537e-02 0.000000e+00 0.000000e+00
1
Step 632000
Ar 2.616906e-02 0.000000e+00 0.000000e+00
1
Step 633000
Ar -3.057791e-02 0.000000e+00 0.000000e+00
1
Step 634000
Ar 6.794159e-02 0.000000e+00 0.000000e+00
1
Step 635000
Ar -5.489443e-02 0.000000e+00 0.000000e+00
1
Step 636000
Ar -1.000515e-02 0.000000e+00 0.000000e+00
1
Step 637000
Ar 7.978083e-03 0.000000e+00 0.000000e+00
1
Step 638000
Ar -8.021392e-03 0.000000e+00 0.000000e+00
1
Step 639000
Ar 1.307967e-02 0.000000e+00 0.000000e+00
1
Step 640000
Ar -3.908453e-02 0.000000e+00 0.000000e+00
1
Step 641000
Ar 5.356170e-02 0.000000e+00 0.000000e+00
1
Step 642000
Ar -1.736922e-02 0.000000e+00 0.000000e+00
1
Step 643000
Ar 1.975082e-02 0.000000e+00 0.000000e+00
1
Step 644000
Ar 1.934657e-02 0.000000e+00 0.000000e+00
1
Step 645000
Ar 1.689855e-02 0.000000e+00 0.000000e+00
1
Step 646000
Ar 5.984063e-02 0.000000e+00 0.000000e+00
1
Step 647000
Ar -1.179489e-03 0.000000e+00 0.000000e+00
1
Step 648000
Ar -9.791704e-03 0.000000e+00 0.000000e+00
1
Step 649000
Ar 7.333619e-02 0.000000e+00 0.000000e+00
1
Step 650000