1
Step 120000
Ar 1.147346e+00 0.000000e+00 0.000000e+00
1
Step 121000
Ar 1.000184e+00 0.000000e+00 0.000000e+00
1
Step 122000
Ar 9.634667e-01 0.000000e+00 0.000000e+00
1
Step 123000
Ar 8.961633e-01 0.000000e+00 0.000000e+00
1
Step 124000
Ar 9.616821e-01 0.000000e+00 0.000000e+00
1
Step 125000
Ar 1.070806e+00 0.000000e+00 0.000000e+00
1
Step 126000
Ar 7.655611e-01 0.000000e+00 0.000000e+00
1
Step 127000
Ar 8.654356e-01 0.000000e+00 0.000000e+00
1
Step 128000
Ar 8.397677e-01 0.000000e+00 0.000000e+00
1
Step 129000
Ar 7.456411e-01 0.000000e+00 0.000000e+00
1
Step 130000
Ar 1.217736e+00 0.000000e+00 0.000000e+00
1
Step 131000
Ar 1.048945e+00 0.000000e+00 0.000000e+00
1
Step 132000
Ar 1.102669e+00 0.000000e+00 0.000000e+00
1
Step 133000
Ar 1.049193e+00 0.000000e+00 0.000000e+00
1
Step 134000
Ar 9.580054e-01 0.000000e+00 0.000000e+00
1
Step 135000
Ar 9.258518e-01 0.000000e+00 0.000000e+00
1
Step 136000
Ar 9.232744e-01 0.000000e+00 0.000000e+00
1
Step 137000
Ar 9.357216e-01 0.000000e+00 0.000000e+00
1
Step 138000
Ar 9.293190e-01 0.000000e+00 0.000000e+00
1
Step 139000
Ar 8.262052e-01 0.000000e+00 0.000000e+00
1
Step 140000
Ar 8.694402e-01 0.000000e+00 0.000000e+00
1
Step 141000
Ar 8.894567e-01 0.000000e+00 0.000000e+00
1
Step 142000
Ar 8.928763e-01 0.000000e+00 0.000000e+00
1
Step 143000
Ar 8.700005e-01 0.000000e+00 0.000000e+00
1
Step 144000
Ar 8.163198e-01 0.000000e+00 0.000000e+00
1
Step 145000
Ar 7.004944e-01 0.000000e+00 0.000000e+00
1
Step 146000
Ar 7.899144e-01 0.000000e+00 0.000000e+00
1
Step 147000
Ar 1.189350e+00 0.000000e+00 0.000000e+00
1
Step 148000
Ar 1.124869e+00 0.000000e+00 0.000000e+00
1
Step 149000
Ar 1.132636e+00 0.000000e+00 0.000000e+00
1
Step 150000
Ar 1.137399e+00 0.000000e+00 0.000000e+00
1
Step 151000
Ar 1.183951e+00 0.000000e+00 0.000000e+00
1
Step 152000
Ar 1.064173e+00 0.000000e+00 0.000000e+00
1
Step 153000
Ar 9.901135e-01 0.000000e+00 0.000000e+00
1
Step 154000
Ar 1.018431e+00 0.000000e+00 0.000000e+00
1
Step 155000
Ar 9.643331e-01 0.000000e+00 0.000000e+00
1
Step 156000
Ar 1.029167e+00 0.000000e+00 0.000000e+00
1
Step 157000
Ar 9.877974e-01 0.000000e+00 0.000000e+00
1
Step 158000
Ar 9.554217e-01 0.000000e+00 0.000000e+00
1
Step 159000
Ar 9.942854e-01 0.000000e+00 0.000000e+00
1
Step 160000
Ar 9.534718e-01 0.000000e+00 0.000000e+00
1
Step 161000
Ar 9.952605e-01 0.000000e+00 0.000000e+00
1
Step 162000
Ar 9.759011e-01 0.000000e+00 0.000000e+00
1
Step 163000
Ar 1.139444e+00 0.000000e+00 0.000000e+00
1
Step 164000
Ar 1.122388e+00 0.000000e+00 0.000000e+00
1
Step 165000
Ar 1.128760e+00 0.000000e+00 0.000000e+00
1
Step 166000
Ar 1.122924e+00 0.000000e+00 0.000000e+00
1
Step 167000
Ar 1.131051e+00 0.000000e+00 0.000000e+00
1
Step 168000
Ar 1.132201e+00 0.000000e+00 0.000000e+00
1
Step 169000
Ar 1.139845e+00 0.000000e+00 0.000000e+00
1
Step 170000
Ar 1.129550e+00 0.000000e+00 0.000000e+00
1
Step 171000
Ar 1.160931e+00 0.000000e+00 0.000000e+00
1
Step 172000
Ar 1.344562e+00 0.000000e+00 0.000000e+00
1
Step 173000
Ar 1.333864e+00 0.000000e+00 0.000000e+00
1
Step 174000
Ar 1.316020e+00 0.000000e+00 0.000000e+00
1
Step 175000
Ar 1.296515e+00 0.000000e+00 0.000000e+00
1
Step 176000
Ar 1.219092e+00 0.000000e+00 0.000000e+00
1
Step 177000
Ar 1.250272e+00 0.000000e+00 0.000000e+00
1
Step 178000
Ar 1.195332e+00 0.000000e+00 0.000000e+00
1
Step 179000
Ar 1.211416e+00 0.000000e+00 0.000000e+00
1
Step 180000
Ar 1.198198e+00 0.000000e+00 0.000000e+00
1
Step 181000
Ar 1.145894e+00 0.000000e+00 0.000000e+00
1
Step 182000
Ar 1.134177e+00 0.000000e+00 0.000000e+00
1
Step 183000
Ar 1.328582e+00 0.000000e+00 0.000000e+00
1
Step 184000
Ar 1.291943e+00 0.000000e+00 0.000000e+00
1
Step 185000
Ar 1.298823e+00 0.000000e+00 0.000000e+00
1
Step 186000
Ar 1.409732e+00 0.000000e+00 0.000000e+00
1
Step 187000
Ar 1.243258e+00 0.000000e+00 0.000000e+00
1
Step 188000
Ar 1.212952e+00 0.000000e+00 0.000000e+00
1
Step 189000
Ar 1.223805e+00 0.000000e+00 0.000000e+00
1
Step 190000
Ar 1.189271e+00 0.000000e+00 0.000000e+00
1
Step 191000
Ar 1.033017e+00 0.000000e+00 0.000000e+00
1
Step 192000
Ar 1.063878e+00 0.000000e+00 0.000000e+00
1
Step 193000
Ar 1.056753e+00 0.000000e+00 0.000000e+00
1
Step 194000
Ar 1.033626e+00 0.000000e+00 0.000000e+00
1
Step 195000
Ar 7.561173e-01 0.000000e+00 0.000000e+00
1
Step 196000
Ar 7.334679e-01 0.000000e+00 0.000000e+00
1
Step 197000
Ar 8.814791e-01 0.000000e+00 0.000000e+00
1
Step 198000
Ar 8.612291e-01 0.000000e+00 0.000000e+00
1
Step 199000
Ar 1.129591e+00 0.000000e+00 0.000000e+00
1
Step 200000
Ar 1.123183e+00 0.000000e+00 0.000000e+00
1
Step 201000
Ar 1.293331e+00 0.000000e+00 0.000000e+00
1
Step 202000
Ar 1.005694e+00 0.000000e+00 0.000000e+00
1
Step 203000
Ar 1.003026e+00 0.000000e+00 0.000000e+00
1
Step 204000
Ar 6.503650e-01 0.000000e+00 0.000000e+00
1
Step 205000
Ar 6.943641e-01 0.000000e+00 0.000000e+00
1
Step 206000
Ar 7.526421e-01 0.000000e+00 0.000000e+00
1
Step 207000
Ar 6.334520e-01 0.000000e+00 0.000000e+00
1
Step 208000
Ar 6.376911e-01 0.000000e+00 0.000000e+00
1
Step 209000
Ar 7.239793e-01 0.000000e+00 0.000000e+00
1
Step 210000
Ar 7.207056e-01 0.000000e+00 0.000000e+00
1
Step 211000
Ar 1.057222e+00 0.000000e+00 0.000000e+00
1
Step 212000
Ar 1.077390e+00 0.000000e+00 0.000000e+00
1
Step 213000
Ar 1.075004e+00 0.000000e+00 0.000000e+00
1
Step 214000
Ar 8.711857e-01 0.000000e+00 0.000000e+00
1
Step 215000
Ar 7.303212e-01 0.000000e+00 0.000000e+00
1
Step 216000
Ar 5.592648e-01 0.000000e+00 0.000000e+00
1
Step 217000
Ar 5.861481e-01 0.000000e+00 0.000000e+00
1
Step 218000
Ar 5.998494e-01 0.000000e+00 0.000000e+00
1
Step 219000
Ar 5.962191e-01 0.000000e+00 0.000000e+00
1
Step 220000
Ar 6.014473e-01 0.000000e+00 0.000000e+00
1
Step 221000
Ar 5.657563e-01 0.000000e+00 0.000000e+00
1
Step 222000
Ar 5.645830e-01 0.000000e+00 0.000000e+00
1
Step 223000
Ar 5.681416e-01 0.000000e+00 0.000000e+00
1
Step 224000
Ar 5.486347e-01 0.000000e+00 0.000000e+00
1
Step 225000
Ar 5.160490e-01 0.000000e+00 0.000000e+00
1
Step 226000
Ar 2.779229e-01 0.000000e+00 0.000000e+00
1
Step 227000
Ar 3.126986e-01 0.000000e+00 0.000000e+00
1
Step 228000
Ar 3.089580e-01 0.000000e+00 0.000000e+00
1
Step 229000
Ar 3.901223e-01 0.000000e+00 0.000000e+00
1
Step 230000
Ar 3.404386e-01 0.000000e+00 0.000000e+00
1
Step 231000
Ar 3.410703e-01 0.000000e+00 0.000000e+00
1
Step 232000
Ar 3.754710e-01 0.000000e+00 0.000000e+00
1
Step 233000
Ar 5.705377e-01 0.000000e+00 0.000000e+00
1
Step 234000
Ar 6.025590e-01 0.000000e+00 0.000000e+00
1
Step 235000
Ar 9.255005e-01 0.000000e+00 0.000000e+00
1
Step 236000
Ar 9.186283e-01 0.000000e+00 0.000000e+00
1
Step 237000
Ar 9.169379e-01 0.000000e+00 0.000000e+00
1
Step 238000
Ar 9.119544e-01 0.000000e+00 0.000000e+00
1
Step 239000
Ar 9.200887e-01 0.000000e+00 0.000000e+00
1
Step 240000
Ar 9.473274e-01 0.000000e+00 0.000000e+00
1
Step 241000
Ar 1.051913e+00 0.000000e+00 0.000000e+00
1
Step 242000
Ar 1.004933e+00 0.000000e+00 0.000000e+00
1
Step 243000
Ar 1.055134e+00 0.000000e+00 0.000000e+00
1
Step 244000
Ar 1.047592e+00 0.000000e+00 0.000000e+00
1
Step 245000
Ar 1.036801e+00 0.000000e+00 0.000000e+00
1
Step 246000
Ar 1.080271e+00 0.000000e+00 0.000000e+00
1
Step 247000
Ar 1.090913e+00 0.000000e+00 0.000000e+00
1
Step 248000
Ar 1.245469e+00 0.000000e+00 0.000000e+00
1
Step 249000
Ar 1.232561e+00 0.000000e+00 0.000000e+00
1
Step 250000
Ar 1.213947e+00 0.000000e+00 0.000000e+00
1
Step 251000
Ar 1.250321e+00 0.000000e+00 0.000000e+00
1
Step 252000
Ar 7.168798e-01 0.000000e+00 0.000000e+00
1
Step 253000
Ar 7.691628e-01 0.000000e+00 0.000000e+00
1
Step 254000
Ar 7.930945e-01 0.000000e+00 0.000000e+00
1
Step 255000
Ar 7.954792e-01 0.000000e+00 0.000000e+00
1
Step 256000
Ar 7.888457e-01 0.000000e+00 0.000000e+00
1
Step 257000
Ar 6.844789e-01 0.000000e+00 0.000000e+00
1
Step 258000
Ar 6.329210e-01 0.000000e+00 0.000000e+00
1
Step 259000
Ar 6.773066e-01 0.000000e+00 0.000000e+00
1
Step 260000
Ar 6.835367e-01 0.000000e+00 0.000000e+00
1
Step 261000
Ar 7.112187e-01 0.000000e+00 0.000000e+00
1
Step 262000
Ar 6.772369e-01 0.000000e+00 0.000000e+00
1
Step 263000
Ar 4.586991e-01 0.000000e+00 0.000000e+00
1
Step 264000
Ar 4.128863e-01 0.000000e+00 0.000000e+00
1
Step 265000
Ar 4.153334e-01 0.000000e+00 0.000000e+00
1
Step 266000
Ar 3.544921e-01 0.000000e+00 0.000000e+00
1
Step 267000
Ar 4.169961e-01 0.000000e+00 0.000000e+00
1
Step 268000
Ar 4.202914e-01 0.000000e+00 0.000000e+00
1
Step 269000
Ar 4.228588e-01 0.000000e+00 0.000000e+00
1
Step 270000
Ar 5.004809e-01 0.000000e+00 0.000000e+00
1
Step 271000
Ar 6.432242e-01 0.000000e+00 0.000000e+00
1
Step 272000
Ar 6.574075e-01 0.000000e+00 0.000000e+00
1
Step 273000
Ar 6.087281e-01 0.000000e+00 0.000000e+00
1
Step 274000
Ar 4.502830e-01 0.000000e+00 0.000000e+00
1
Step 275000
Ar 4.155712e-01 0.000000e+00 0.000000e+00
1
Step 276000
Ar 3.708907e-01 0.000000e+00 0.000000e+00
1
Step 277000
Ar 4.169630e-01 0.000000e+00 0.000000e+00
1
Step 278000
Ar 3.888624e-01 0.000000e+00 0.000000e+00
1
Step 279000
Ar 4.575906e-01 0.000000e+00 0.000000e+00
1
Step 280000
Ar 4.838762e-01 0.000000e+00 0.000000e+00
1
Step 281000
Ar 4.632512e-01 0.000000e+00 0.000000e+00
1
Step 282000
Ar 5.534021e-01 0.000000e+00 0.000000e+00
1
Step 283000
Ar 4.801219e-01 0.000000e+00 0.000000e+00
1
Step 284000
Ar 6.043580e-01 0.000000e+00 0.000000e+00
1
Step 285000
Ar 6.363739e-01 0.000000e+00 0.000000e+00
1
Step 286000
Ar 6.474225e-01 0.000000e+00 0.000000e+00
1
Step 287000
Ar 5.938706e-01 0.000000e+00 0.000000e+00
1
Step 288000
Ar 4.970874e-01 0.000000e+00 0.000000e+00
1
Step 289000
Ar 9.200454e-01 0.000000e+00 0.000000e+00
1
Step 290000
Ar 9.188986e-01 0.000000e+00 0.000000e+00
1
Step 291000
Ar 1.004495e+00 0.000000e+00 0.000000e+00
1
Step 292000
Ar 9.698362e-01 0.000000e+00 0.000000e+00
1
Step 293000
Ar 9.194253e-01 0.000000e+00 0.000000e+00
1
Step 294000
Ar 9.151431e-01 0.000000e+00 0.000000e+00
1
Step 295000
Ar 9.109586e-01 0.000000e+00 0.000000e+00
1
Step 296000
Ar 8.379250e-01 0.000000e+00 0.000000e+00
1
Step 297000
Ar 8.397299e-01 0.000000e+00 0.000000e+00
1
Step 298000
Ar 8.597618e-01 0.000000e+00 0.000000e+00
1
Step 299000
Ar 8.148610e-01 0.000000e+00 0.000000e+00
1
Step 300000
Ar 7.455521e-01 0.000000e+00 0.000000e+00
1
Step 301000
Ar 8.859187e-01 0.000000e+00 0.000000e+00
1
Step 302000
Ar 8.972091e-01 0.000000e+00 0.000000e+00
1
Step 303000
Ar 7.999507e-01 0.000000e+00 0.000000e+00
1
Step 304000
Ar 7.392717e-01 0.000000e+00 0.000000e+00
1
Step 305000
Ar 7.456289e-01 0.000000e+00 0.000000e+00
1
Step 306000
Ar 7.441871e-01 0.000000e+00 0.000000e+00
1
Step 307000
Ar 7.838384e-01 0.000000e+00 0.000000e+00
1
Step 308000
Ar 6.620123e-01 0.000000e+00 0.000000e+00
1
Step 309000
Ar 6.765887e-01 0.000000e+00 0.000000e+00
1
Step 310000
Ar 6.060205e-01 0.000000e+00 0.000000e+00
1
Step 311000
Ar 7.246198e-01 0.000000e+00 0.000000e+00
1
Step 312000
Ar 7.715080e-01 0.000000e+00 0.000000e+00
1
Step 313000
Ar 7.350831e-01 0.000000e+00 0.000000e+00
1
Step 314000
Ar 7.706529e-01 0.000000e+00 0.000000e+00
1
Step 315000
Ar 8.856585e-01 0.000000e+00 0.000000e+00
1
Step 316000
Ar 8.683529e-01 0.000000e+00 0.000000e+00
1
Step 317000
Ar 9.164607e-01 0.000000e+00 0.000000e+00
1
Step 318000
Ar 8.716039e-01 0.000000e+00 0.000000e+00
1
Step 319000
Ar 1.006882e+00 0.000000e+00 0.000000e+00
1
Step 320000
Ar 1.006792e+00 0.000000e+00 0.000000e+00
1
Step 321000
Ar 9.509845e-01 0.000000e+00 0.000000e+00
1
Step 322000
Ar 9.494310e-01 0.000000e+00 0.000000e+00
1
Step 323000
Ar 9.148309e-01 0.000000e+00 0.000000e+00
1
Step 324000
Ar 9.299864e-01 0.000000e+00 0.000000e+00
1
Step 325000
Ar 9.792383e-01 0.000000e+00 0.000000e+00
1
Step 326000
Ar 9.564637e-01 0.000000e+00 0.000000e+00
1
Step 327000
Ar 9.515292e-01 0.000000e+00 0.000000e+00
1
Step 328000
Ar 1.006961e+00 0.000000e+00 0.000000e+00
1
Step 329000
Ar 9.320088e-01 0.000000e+00 0.000000e+00
1
Step 330000
Ar 9.310665e-01 0.000000e+00 0.000000e+00
1
Step 331000
Ar 8.508561e-01 0.000000e+00 0.000000e+00
1
Step 332000
Ar 8.110611e-01 0.000000e+00 0.000000e+00
1
Step 333000
Ar 8.156388e-01 0.000000e+00 0.000000e+00
1
Step 334000
Ar 8.021428e-01 0.000000e+00 0.000000e+00
1
Step 335000
Ar 8.218442e-01 0.000000e+00 0.000000e+00
1
Step 336000
Ar 7.768534e-01 0.000000e+00 0.000000e+00
1
Step 337000
Ar 7.514563e-01 0.000000e+00 0.000000e+00
1
Step 338000
Ar 7.520144e-01 0.000000e+00 0.000000e+00
1
Step 339000
Ar 8.721147e-01 0.000000e+00 0.000000e+00
1
Step 340000
Ar 4.814172e-01 0.000000e+00 0.000000e+00
1
Step 341000
Ar 3.920723e-01 0.000000e+00 0.000000e+00
1
Step 342000
Ar -5.493644e-01 0.000000e+00 0.000000e+00
1
Step 343000
Ar -1.039097e+00 0.000000e+00 0.000000e+00
1
Step 344000
Ar -1.036904e+00 0.000000e+00 0.000000e+00
1
Step 345000
Ar -7.744156e-01 0.000000e+00 0.000000e+00
1
Step 346000
Ar -8.086508e-01 0.000000e+00 0.000000e+00
1
Step 347000
Ar -3.461808e-01 0.000000e+00 0.000000e+00
1
Step 348000
Ar -3.097334e-01 0.000000e+00 0.000000e+00
1
Step 349000
Ar -4.064816e-01 0.000000e+00 0.000000e+00
1
Step 350000
Ar -1.947280e-01 0.000000e+00 0.000000e+00
1
Step 351000
Ar -2.801880e-01 0.000000e+00 0.000000e+00
1
Step 352000
Ar 1.689790e-01 0.000000e+00 0.000000e+00
1
Step 353000
Ar -1.095324e-01 0.000000e+00 0.000000e+00
1
Step 354000
Ar 2.824368e-01 0.000000e+00 0.000000e+00
1
Step 355000
Ar 1.485705e-01 0.000000e+00 0.000000e+00
1
Step 356000
Ar 1.947161e-01 0.000000e+00 0.000000e+00
1
Step 357000
Ar 1.791667e-01 0.000000e+00 0.000000e+00
1
Step 358000
Ar 2.877865e-02 0.000000e+00 0.000000e+00
1
Step 359000
Ar -1.620448e-01 0.000000e+00 0.000000e+00
1
Step 360000
Ar 3.008869e-02 0.000000e+00 0.000000e+00
1
Step 361000
Ar 4.936845e-03 0.000000e+00 0.000000e+00
1
Step 362000
Ar -1.115212e-02 0.000000e+00 0.000000e+00
1
Step 363000
Ar 1.972841e-02 0.000000e+00 0.000000e+00
1
Step 364000
Ar 5.431087e-02 0.000000e+00 0.000000e+00
1
Step 365000
Ar 1.079317e-01 0.000000e+00 0.000000e+00
1
Step 366000
Ar 1.229554e-01 0.000000e+00 0.000000e+00
1
Step 367000
Ar 1.297484e-01 0.000000e+00 0.000000e+00
1
Step 368000
Ar 1.323712e-01 0.000000e+00 0.000000e+00
1
Step 369000
Ar 8.457701e-02 0.000000e+00 0.000000e+00
1
Step 370000
Ar 1.526971e-01 0.000000e+00 0.000000e+00
1
Step 371000
Ar 1.426344e-01 0.000000e+00 0.000000e+00
1
Step 372000
Ar -5.094131e-03 0.000000e+00 0.000000e+00
1
Step 373000
Ar -1.811755e-01 0.000000e+00 0.000000e+00
1
Step 374000
Ar -1.919234e-01 0.000000e+00 0.000000e+00
1
Step 375000
Ar -3.252942e-01 0.000000e+00 0.000000e+00
1
Step 376000
Ar -7.762914e-01 0.000000e+00 0.000000e+00
1
Step 377000
Ar -8.875526e-01 0.000000e+00 0.000000e+00
1
Step 378000
Ar -8.882772e-01 0.000000e+00 0.000000e+00
1
Step 379000
Ar -1.137497e+00 0.000000e+00 0.000000e+00
1
Step 380000
Ar -1.186420e+00 0.000000e+00 0.000000e+00
1
Step 381000
Ar -1.114319e+00 0.000000e+00 0.000000e+00
1
Step 382000
Ar -1.058235e+00 0.000000e+00 0.000000e+00
1
Step 383000
Ar -8.191489e-01 0.000000e+00 0.000000e+00
1
Step 384000
Ar -7.761343e-01 0.000000e+00 0.000000e+00
1
Step 385000
Ar -7.714797e-01 0.000000e+00 0.000000e+00
1
Step 386000
Ar -5.556193e-01 0.000000e+00 0.000000e+00
1
Step 387000
Ar -6.703255e-01 0.000000e+00 0.000000e+00
1
Step 388000
Ar -7.466812e-01 0.000000e+00 0.000000e+00
1
Step 389000
Ar -7.732538e-01 0.000000e+00 0.000000e+00
1
Step 390000
Ar -6.565874e-01 0.000000e+00 0.000000e+00
1
Step 391000
Ar -5.649189e-01 0.000000e+00 0.000000e+00
1
Step 392000
Ar -5.844730e-01 0.000000e+00 0.000000e+00
1
Step 393000
Ar -6.033976e-01 0.000000e+00 0.000000e+00
1
Step 394000
Ar -6.088141e-01 0.000000e+00 0.000000e+00
1
Step 395000
Ar -5.606079e-01 0.000000e+00 0.000000e+00
1
Step 396000
Ar -7.474044e-01 0.000000e+00 0.000000e+00
1
Step 397000
Ar -6.646026e-01 0.000000e+00 0.000000e+00
1
Step 398000
Ar -6.616328e-01 0.000000e+00 0.000000e+00
1
Step 399000
Ar -6.606351e-01 0.000000e+00 0.000000e+00
1
Step 400000
Ar -5.741857e-01 0.000000e+00 0.000000e+00
1
Step 401000
Ar -5.895277e-01 0.000000e+00 0.000000e+00
1
Step 402000
Ar -5.851116e-01 0.000000e+00 0.000000e+00
1
Step 403000
Ar -5.726766e-01 0.000000e+00 0.000000e+00
1
Step 404000
Ar -5.691706e-01 0.000000e+00 0.000000e+00
1
Step 405000
Ar -5.619531e-01 0.000000e+00 0.000000e+00
1
Step 406000
Ar -6.940451e-01 0.000000e+00 0.000000e+00
1
Step 407000
Ar -5.779543e-01 0.000000e+00 0.000000e+00
1
Step 408000
Ar -1.150920e+00 0.000000e+00 0.000000e+00
1
Step 409000
Ar -9.976367e-01 0.000000e+00 0.000000e+00
1
Step 410000
Ar -9.628122e-01 0.000000e+00 0.000000e+00
1
Step 411000
Ar -9.396069e-01 0.000000e+00 0.000000e+00
1
Step 412000
Ar -1.091478e+00 0.000000e+00 0.000000e+00
1
Step 413000
Ar -1.007785e+00 0.000000e+00 0.000000e+00
1
Step 414000
Ar -1.056970e+00 0.000000e+00 0.000000e+00
1
Step 415000
Ar -1.063404e+00 0.000000e+00 0.000000e+00
1
Step 416000
Ar -1.034243e+00 0.000000e+00 0.000000e+00
1
Step 417000
Ar -1.234528e+00 0.000000e+00 0.000000e+00
1
Step 418000
Ar -1.346855e+00 0.000000e+00 0.000000e+00
1
Step 419000
Ar -1.277248e+00 0.000000e+00 0.000000e+00
1
Step 420000
Ar -1.318278e+00 0.000000e+00 0.000000e+00
1
Step 421000
Ar -1.250687e+00 0.000000e+00 0.000000e+00
1
Step 422000
Ar -1.250559e+00 0.000000e+00 0.000000e+00
1
Step 423000
Ar -7.172529e-01 0.000000e+00 0.000000e+00
1
Step 424000
Ar -7.234228e-01 0.000000e+00 0.000000e+00
1
Step 425000
Ar -7.247334e-01 0.000000e+00 0.000000e+00
1
Step 426000
Ar -7.263930e-01 0.000000e+00 0.000000e+00
1
Step 427000
Ar -9.592819e-01 0.000000e+00 0.000000e+00
1
Step 428000
Ar -9.464298e-01 0.000000e+00 0.000000e+00
1
Step 429000
Ar -9.704591e-01 0.000000e+00 0.000000e+00
1
Step 430000
Ar -9.235910e-01 0.000000e+00 0.000000e+00
1
Step 431000
Ar -1.189878e+00 0.000000e+00 0.000000e+00
1
Step 432000
Ar -1.095861e+00 0.000000e+00 0.000000e+00
1
Step 433000
Ar -1.082752e+00 0.000000e+00 0.000000e+00
1
Step 434000
Ar -1.132770e+00 0.000000e+00 0.000000e+00
1
Step 435000
Ar -1.128721e+00 0.000000e+00 0.000000e+00
1
Step 436000
Ar -1.130905e+00 0.000000e+00 0.000000e+00
1
Step 437000
Ar -1.132052e+00 0.000000e+00 0.000000e+00
1
Step 438000
Ar -1.127485e+00 0.000000e+00 0.000000e+00
1
Step 439000
Ar -9.174564e-01 0.000000e+00 0.000000e+00
1
Step 440000
Ar -9.261452e-01 0.000000e+00 0.000000e+00
1
Step 441000
Ar -7.957311e-01 0.000000e+00 0.000000e+00
1
Step 442000
Ar -7.929485e-01 0.000000e+00 0.000000e+00
1
Step 443000
Ar -1.042394e+00 0.000000e+00 0.000000e+00
1
Step 444000
Ar -9.481162e-01 0.000000e+00 0.000000e+00
1
Step 445000
Ar -9.175029e-01 0.000000e+00 0.000000e+00
1
Step 446000
Ar -8.699726e-01 0.000000e+00 0.000000e+00
1
Step 447000
Ar -8.654037e-01 0.000000e+00 0.000000e+00
1
Step 448000
Ar -8.737487e-01 0.000000e+00 0.000000e+00
1
Step 449000
Ar -8.991966e-01 0.000000e+00 0.000000e+00
1
Step 450000
Ar -9.025140e-01 0.000000e+00 0.000000e+00
1
Step 451000
Ar -7.949504e-01 0.000000e+00 0.000000e+00
1
Step 452000
Ar -7.963536e-01 0.000000e+00 0.000000e+00
1
Step 453000
Ar -1.041758e+00 0.000000e+00 0.000000e+00
1
Step 454000
Ar -1.014349e+00 0.000000e+00 0.000000e+00
1
Step 455000
Ar -8.704857e-01 0.000000e+00 0.000000e+00
1
Step 456000
Ar -9.275434e-01 0.000000e+00 0.000000e+00
1
Step 457000
Ar -8.633053e-01 0.000000e+00 0.000000e+00
1
Step 458000
Ar -9.585707e-01 0.000000e+00 0.000000e+00
1
Step 459000
Ar -9.617836e-01 0.000000e+00 0.000000e+00
1
Step 460000
Ar -9.581966e-01 0.000000e+00 0.000000e+00
1
Step 461000
Ar -8.698113e-01 0.000000e+00 0.000000e+00
1
Step 462000
Ar -8.680941e-01 0.000000e+00 0.000000e+00
1
Step 463000
Ar -8.618741e-01 0.000000e+00 0.000000e+00
1
Step 464000
Ar -8.891889e-01 0.000000e+00 0.000000e+00
1
Step 465000
Ar -1.219927e+00 0.000000e+00 0.000000e+00
1
Step 466000
Ar -1.223171e+00 0.000000e+00 0.000000e+00
1
Step 467000
Ar -1.103032e+00 0.000000e+00 0.000000e+00
1
Step 468000
Ar -1.104583e+00 0.000000e+00 0.000000e+00
1
Step 469000
Ar -1.088515e+00 0.000000e+00 0.000000e+00
1
Step 470000
Ar -1.094665e+00 0.000000e+00 0.000000e+00
1
Step 471000
Ar -1.099474e+00 0.000000e+00 0.000000e+00
1
Step 472000
Ar -1.094955e+00 0.000000e+00 0.000000e+00
1
Step 473000
Ar -1.094764e+00 0.000000e+00 0.000000e+00
1
Step 474000
Ar -1.038262e+00 0.000000e+00 0.000000e+00
1
Step 475000
Ar -1.290069e+00 0.000000e+00 0.000000e+00
1
Step 476000
Ar -1.324612e+00 0.000000e+00 0.000000e+00
1
Step 477000
Ar -1.182619e+00 0.000000e+00 0.000000e+00
1
Step 478000
Ar -1.080216e+00 0.000000e+00 0.000000e+00
1
Step 479000
Ar -1.027212e+00 0.000000e+00 0.000000e+00
1
Step 480000
Ar -9.045822e-01 0.000000e+00 0.000000e+00
1
Step 481000
Ar -9.563021e-01 0.000000e+00 0.000000e+00
1
Step 482000
Ar -9.558290e-01 0.000000e+00 0.000000e+00
1
Step 483000
Ar -1.032242e+00 0.000000e+00 0.000000e+00
1
Step 484000
Ar -1.174863e+00 0.000000e+00 0.000000e+00
1
Step 485000
Ar -1.228599e+00 0.000000e+00 0.000000e+00
1
Step 486000
Ar -1.238915e+00 0.000000e+00 0.000000e+00
1
Step 487000
Ar -1.192934e+00 0.000000e+00 0.000000e+00
1
Step 488000
Ar -1.199041e+00 0.000000e+00 0.000000e+00
1
Step 489000
Ar -1.340574e+00 0.000000e+00 0.000000e+00
1
Step 490000
Ar -1.380198e+00 0.000000e+00 0.000000e+00
1
Step 491000
Ar -1.339365e+00 0.000000e+00 0.000000e+00
1
Step 492000
Ar -1.267987e+00 0.000000e+00 0.000000e+00
1
Step 493000
Ar -1.278496e+00 0.000000e+00 0.000000e+00
1
Step 494000
Ar -9.572845e-01 0.000000e+00 0.000000e+00
1
Step 495000
Ar -9.884714e-01 0.000000e+00 0.000000e+00
1
Step 496000
Ar -9.961015e-01 0.000000e+00 0.000000e+00
1
Step 497000
Ar -1.002381e+00 0.000000e+00 0.000000e+00
1
Step 498000
Ar -9.859960e-01 0.000000e+00 0.000000e+00
1
Step 499000
Ar -1.053448e+00 0.000000e+00 0.000000e+00
1
Step 500000
Ar -1.127563e+00 0.000000e+00 0.000000e+00
1
Step 501000
Ar -1.128549e+00 0.000000e+00 0.000000e+00
1
Step 502000
Ar -1.268987e+00 0.000000e+00 0.000000e+00
1
Step 503000
Ar -1.269929e+00 0.000000e+00 0.000000e+00
1
Step 504000
Ar -1.268060e+00 0.000000e+00 0.000000e+00
1
Step 505000
Ar -1.264396e+00 0.000000e+00 0.000000e+00
1
Step 506000
Ar -1.284706e+00 0.000000e+00 0.000000e+00
1
Step 507000
Ar -1.283923e+00 0.000000e+00 0.000000e+00
1
Step 508000
Ar -1.285946e+00 0.000000e+00 0.000000e+00
1
Step 509000
Ar -1.301980e+00 0.000000e+00 0.000000e+00
1
Step 510000
Ar -1.289966e+00 0.000000e+00 0.000000e+00
1
Step 511000
Ar -1.433784e+00 0.000000e+00 0.000000e+00
1
Step 512000
Ar -1.086646e+00 0.000000e+00 0.000000e+00
1
Step 513000
Ar -1.087097e+00 0.000000e+00 0.000000e+00
1
Step 514000
Ar -1.117893e+00 0.000000e+00 0.000000e+00
1
Step 515000
Ar -1.053291e+00 0.000000e+00 0.000000e+00
1
Step 516000
Ar -1.122801e+00 0.000000e+00 0.000000e+00
1
Step 517000
Ar -1.134708e+00 0.000000e+00 0.000000e+00
1
Step 518000
Ar -1.096609e+00 0.000000e+00 0.000000e+00
1
Step 519000
Ar -1.165520e+00 0.000000e+00 0.000000e+00
1
Step 520000
Ar -1.121448e+00 0.000000e+00 0.000000e+00
1
Step 521000
Ar -9.842897e-01 0.000000e+00 0.000000e+00
1
Step 522000
Ar -4.663283e-01 0.000000e+00 0.000000e+00
1
Step 523000
Ar -3.795423e-01 0.000000e+00 0.000000e+00
1
Step 524000
Ar -3.727310e-01 0.000000e+00 0.000000e+00
1
Step 525000
Ar -3.689085e-01 0.000000e+00 0.000000e+00
1
Step 526000
Ar -3.769818e-01 0.000000e+00 0.000000e+00
1
Step 527000
Ar -3.778543e-01 0.000000e+00 0.000000e+00
1
Step 528000
Ar -3.922719e-01 0.000000e+00 0.000000e+00
1
Step 529000
Ar -4.354438e-01 0.000000e+00 0.000000e+00
1
Step 530000
Ar -4.329521e-01 0.000000e+00 0.000000e+00
1
Step 531000
Ar -4.429126e-01 0.000000e+00 0.000000e+00
1
Step 532000
Ar -4.387423e-01 0.000000e+00 0.000000e+00
1
Step 533000
Ar -4.444754e-01 0.000000e+00 0.000000e+00
1
Step 534000
Ar -5.040188e-01 0.000000e+00 0.000000e+00
1
Step 535000
Ar -5.938111e-01 0.000000e+00 0.000000e+00
1
Step 536000
Ar -5.680193e-01 0.000000e+00 0.000000e+00
1
Step 537000
Ar -5.418429e-01 0.000000e+00 0.000000e+00
1
Step 538000
Ar -4.901622e-01 0.000000e+00 0.000000e+00
1
Step 539000
Ar -4.949862e-01 0.000000e+00 0.000000e+00
1
Step 540000
Ar -4.751863e-01 0.000000e+00 0.000000e+00
1
Step 541000
Ar -2.851367e-01 0.000000e+00 0.000000e+00
1
Step 542000
Ar -2.797760e-01 0.000000e+00 0.000000e+00
1
Step 543000
Ar -4.653452e-01 0.000000e+00 0.000000e+00
1
Step 544000
Ar -4.891441e-01 0.000000e+00 0.000000e+00
1
Step 545000
Ar -3.317490e-01 0.000000e+00 0.000000e+00
1
Step 546000
Ar -4.046368e-01 0.000000e+00 0.000000e+00
1
Step 547000
Ar -1.722936e-01 0.000000e+00 0.000000e+00
1
Step 548000
Ar -1.934445e-01 0.000000e+00 0.000000e+00
1
Step 549000
Ar -1.908884e-01 0.000000e+00 0.000000e+00
1
Step 550000
Ar -2.180160e-01 0.000000e+00 0.000000e+00
1
Step 551000
Ar -2.758253e-01 0.000000e+00 0.000000e+00
1
Step 552000
Ar -1.940647e-01 0.000000e+00 0.000000e+00
1
Step 553000
Ar -1.805788e-01 0.000000e+00 0.000000e+00
1
Step 554000
Ar -1.959586e-01 0.000000e+00 0.000000e+00
1
Step 555000
Ar -1.974894e-01 0.000000e+00 0.000000e+00
1
Step 556000
Ar -1.964903e-01 0.000000e+00 0.000000e+00
1
Step 557000
Ar -1.413083e-01 0.000000e+00 0.000000e+00
1
Step 558000
Ar -1.595550e-01 0.000000e+00 0.000000e+00
1
Step 559000
Ar -9.403217e-02 0.000000e+00 0.000000e+00
1
Step 560000
Ar -2.164505e-01 0.000000e+00 0.000000e+00
1
Step 561000
Ar -2.164720e-01 0.000000e+00 0.000000e+00
1
Step 562000
Ar -2.469248e-01 0.000000e+00 0.000000e+00
1
Step 563000
Ar -2.528553e-01 0.000000e+00 0.000000e+00
1
Step 564000
Ar -2.483633e-01 0.000000e+00 0.000000e+00
1
Step 565000
Ar -2.551420e-01 0.000000e+00 0.000000e+00
1
Step 566000
Ar -2.563491e-01 0.000000e+00 0.000000e+00
1
Step 567000
Ar -3.293932e-01 0.000000e+00 0.000000e+00
1
Step 568000
Ar -3.681583e-01 0.000000e+00 0.000000e+00
1
Step 569000
Ar -3.774771e-01 0.000000e+00 0.000000e+00
1
Step 570000
Ar -3.358269e-01 0.000000e+00 0.000000e+00
1
Step 571000
Ar -3.423035e-01 0.000000e+00 0.000000e+00
1
Step 572000
Ar -6.517503e-01 0.000000e+00 0.000000e+00
1
Step 573000
Ar -7.011156e-01 0.000000e+00 0.000000e+00
1
Step 574000
Ar -6.968030e-01 0.000000e+00 0.000000e+00
1
Step 575000
Ar -7.077349e-01 0.000000e+00 0.000000e+00
1
Step 576000
Ar -5.851828e-01 0.000000e+00 0.000000e+00
1
Step 577000
Ar -6.676406e-01 0.000000e+00 0.000000e+00
1
Step 578000
Ar -6.227553e-01 0.000000e+00 0.000000e+00
1
Step 579000
Ar -6.588337e-01 0.000000e+00 0.000000e+00
1
Step 580000
Ar -6.482146e-01 0.000000e+00 0.000000e+00
1
Step 581000
Ar -6.645017e-01 0.000000e+00 0.000000e+00
1
Step 582000
Ar -8.588672e-01 0.000000e+00 0.000000e+00
1
Step 583000
Ar -8.609839e-01 0.000000e+00 0.000000e+00
1
Step 584000
Ar -8.601388e-01 0.000000e+00 0.000000e+00
1
Step 585000
Ar -1.115289e+00 0.000000e+00 0.000000e+00
1
Step 586000
Ar -9.352882e-01 0.000000e+00 0.000000e+00
1
Step 587000
Ar -9.476302e-01 0.000000e+00 0.000000e+00
1
Step 588000
Ar -9.479769e-01 0.000000e+00 0.000000e+00
1
Step 589000
Ar -9.487062e-01 0.000000e+00 0.000000e+00
1
Step 590000
Ar -9.421537e-01 0.000000e+00 0.000000e+00
1
Step 591000
Ar -9.177914e-01 0.000000e+00 0.000000e+00
1
Step 592000
Ar 6.289493e-02 0.000000e+00 0.000000e+00
1
Step 593000
Ar -8.622398e-02 0.000000e+00 0.000000e+00
1
Step 594000
Ar -6.844962e-02 0.000000e+00 0.000000e+00
1
Step 595000
Ar -1.746705e-01 0.000000e+00 0.000000e+00
1
Step 596000
Ar -3.910000e-01 0.000000e+00 0.000000e+00
1
Step 597000
Ar -2.859989e-01 0.000000e+00 0.000000e+00
1
Step 598000
Ar -2.912903e-01 0.000000e+00 0.000000e+00
1
Step 599000
Ar -2.865688e-01 0.000000e+00 0.000000e+00
1
Step 600000
Ar -2.813610e-01 0.000000e+00 0.000000e+00
1
Step 601000
Ar -2.604777e-01 0.000000e+00 0.000000e+00
1
Step 602000
Ar -1.752686e-01 0.000000e+00 0.000000e+00
1
Step 603000
Ar -2.190409e-01 0.000000e+00 0.000000e+00
1
Step 604000
Ar -1.611178e-01 0.000000e+00 0.000000e+00
1
Step 605000
Ar -2.170378e-01 0.000000e+00 0.000000e+00
1
Step 606000
Ar -3.691043e-01 0.000000e+00 0.000000e+00
1
Step 607000
Ar -2.685856e-01 0.000000e+00 0.000000e+00
1
Step 608000
Ar -2.703333e-01 0.000000e+00 0.000000e+00
1
Step 609000
Ar -2.699582e-01 0.000000e+00 0.000000e+00
1
Step 610000
Ar -2.722214e-01 0.000000e+00 0.000000e+00
1
Step 611000
Ar -2.685381e-01 0.000000e+00 0.000000e+00
1
Step 612000
Ar 6.408212e-02 0.000000e+00 0.000000e+00
1
Step 613000
Ar 6.054966e-02 0.000000e+00 0.000000e+00
1
Step 614000
Ar 1.781005e-01 0.000000e+00 0.000000e+00
1
Step 615000
Ar -9.530220e-03 0.000000e+00 0.000000e+00
1
Step 616000
Ar -7.647452e-03 0.000000e+00 0.000000e+00
1
Step 617000
Ar 1.183598e-01 0.000000e+00 0.000000e+00
1
Step 618000
Ar 1.029512e-01 0.000000e+00 0.000000e+00
1
Step 619000
Ar 1.393772e-01 0.000000e+00 0.000000e+00
1
Step 620000
Ar 2.289026e-01 0.000000e+00 0.000000e+00
1
Step 621000
Ar 2.234166e-01 0.000000e+00 0.000000e+00
1
Step 622000
Ar 2.234231e-01 0.000000e+00 0.000000e+00
1
Step 623000
Ar 2.269621e-01 0.000000e+00 0.000000e+00
1
Step 624000
Ar 2.828600e-01 0.000000e+00 0.000000e+00
1
Step 625000
Ar 1.329113e-01 0.000000e+00 0.000000e+00
1
Step 626000
Ar 2.564672e-01 0.000000e+00 0.000000e+00
1
Step 627000
Ar 2.465503e-01 0.000000e+00 0.000000e+00
1
Step 628000
Ar 2.295065e-01 0.000000e+00 0.000000e+00
1
Step 629000
Ar 1.028724e-01 0.000000e+00 0.000000e+00
1
Step 630000
Ar 1.049157e-01 0.000000e+00 0.000000e+00
1
Step 631000
Ar 2.884635e-01 0.000000e+00 0.000000e+00
1
Step 632000
Ar 2.466379e-01 0.000000e+00 0.000000e+00
1
Step 633000
Ar 2.481829e-01 0.000000e+00 0.000000e+00
1
Step 634000
Ar 2.153507e-01 0.000000e+00 0.000000e+00
1
Step 635000
Ar 2.831071e-01 0.000000e+00 0.000000e+00
1
Step 636000
Ar 4.710384e-01 0.000000e+00 0.000000e+00
1
Step 637000
Ar 4.124943e-01 0.000000e+00 0.000000e+00
1
Step 638000
Ar 4.488397e-01 0.000000e+00 0.000000e+00
1
Step 639000
Ar 4.401234e-01 0.000000e+00 0.000000e+00
1
Step 640000
Ar 4.800725e-01 0.000000e+00 0.000000e+00
1
Step 641000
Ar 4.761738e-01 0.000000e+00 0.000000e+00
1
Step 642000
Ar 2.251192e-01 0.000000e+00 0.000000e+00
1
Step 643000
Ar 2.522478e-01 0.000000e+00 0.000000e+00
1
Step 644000
Ar 2.487605e-01 0.000000e+00 0.000000e+00
1
Step 645000
Ar 2.722341e-01 0.000000e+00 0.000000e+00
1
Step 646000
Ar 2.665890e-01 0.000000e+00 0.000000e+00
1
Step 647000
Ar 2.670906e-01 0.000000e+00 0.000000e+00
1
Step 648000
Ar 3.028848e-01 0.000000e+00 0.000000e+00
1
Step 649000
Ar 2.153930e-01 0.000000e+00 0.000000e+00
1
Step 650000
Ar 2.170556e-01 0.000000e+00 0.000000e+00
1