1
Step 120000
Ar 8.252225e-01 0.000000e+00 0.000000e+00
1
Step 121000
Ar 8.601150e-01 0.000000e+00 0.000000e+00
1
Step 122000
Ar 8.116628e-01 0.000000e+00 0.000000e+00
1
Step 123000
Ar 1.070924e+00 0.000000e+00 0.000000e+00
1
Step 124000
Ar 1.090646e+00 0.000000e+00 0.000000e+00
1
Step 125000
Ar 1.112921e+00 0.000000e+00 0.000000e+00
1
Step 126000
Ar 9.925846e-01 0.000000e+00 0.000000e+00
1
Step 127000
Ar 9.744845e-01 0.000000e+00 0.000000e+00
1
Step 128000
Ar 1.189509e+00 0.000000e+00 0.000000e+00
1
Step 129000
Ar 1.253959e+00 0.000000e+00 0.000000e+00
1
Step 130000
Ar 1.240285e+00 0.000000e+00 0.000000e+00
1
Step 131000
Ar 1.220382e+00 0.000000e+00 0.000000e+00
1
Step 132000
Ar 9.419491e-01 0.000000e+00 0.000000e+00
1
Step 133000
Ar 1.085714e+00 0.000000e+00 0.000000e+00
1
Step 134000
Ar 8.713933e-01 0.000000e+00 0.000000e+00
1
Step 135000
Ar 8.912152e-01 0.000000e+00 0.000000e+00
1
Step 136000
Ar 9.246752e-01 0.000000e+00 0.000000e+00
1
Step 137000
Ar 1.040982e+00 0.000000e+00 0.000000e+00
1
Step 138000
Ar 1.053523e+00 0.000000e+00 0.000000e+00
1
Step 139000
Ar 9.929891e-01 0.000000e+00 0.000000e+00
1
Step 140000
Ar 1.204968e+00 0.000000e+00 0.000000e+00
1
Step 141000
Ar 1.165712e+00 0.000000e+00 0.000000e+00
1
Step 142000
Ar 1.150429e+00 0.000000e+00 0.000000e+00
1
Step 143000
Ar 1.140328e+00 0.000000e+00 0.000000e+00
1
Step 144000
Ar 1.176243e+00 0.000000e+00 0.000000e+00
1
Step 145000
Ar 1.197255e+00 0.000000e+00 0.000000e+00
1
Step 146000
Ar 1.216228e+00 0.000000e+00 0.000000e+00
1
Step 147000
Ar 1.020160e+00 0.000000e+00 0.000000e+00
1
Step 148000
Ar 1.010220e+00 0.000000e+00 0.000000e+00
1
Step 149000
Ar 1.061067e+00 0.000000e+00 0.000000e+00
1
Step 150000
Ar 1.029984e+00 0.000000e+00 0.000000e+00
1
Step 151000
Ar 8.479042e-01 0.000000e+00 0.000000e+00
1
Step 152000
Ar 7.942000e-01 0.000000e+00 0.000000e+00
1
Step 153000
Ar 7.451015e-01 0.000000e+00 0.000000e+00
1
Step 154000
Ar 1.035365e+00 0.000000e+00 0.000000e+00
1
Step 155000
Ar 1.002029e+00 0.000000e+00 0.000000e+00
1
Step 156000
Ar 1.128448e+00 0.000000e+00 0.000000e+00
1
Step 157000
Ar 1.099363e+00 0.000000e+00 0.000000e+00
1
Step 158000
Ar 1.103939e+00 0.000000e+00 0.000000e+00
1
Step 159000
Ar 7.025333e-01 0.000000e+00 0.000000e+00
1
Step 160000
Ar 7.240345e-01 0.000000e+00 0.000000e+00
1
Step 161000
Ar 8.332892e-01 0.000000e+00 0.000000e+00
1
Step 162000
Ar 9.452101e-01 0.000000e+00 0.000000e+00
1
Step 163000
Ar 7.612128e-01 0.000000e+00 0.000000e+00
1
Step 164000
Ar 7.767603e-01 0.000000e+00 0.000000e+00
1
Step 165000
Ar 9.015165e-01 0.000000e+00 0.000000e+00
1
Step 166000
Ar 9.104776e-01 0.000000e+00 0.000000e+00
1
Step 167000
Ar 6.747425e-01 0.000000e+00 0.000000e+00
1
Step 168000
Ar 7.119728e-01 0.000000e+00 0.000000e+00
1
Step 169000
Ar 6.514770e-01 0.000000e+00 0.000000e+00
1
Step 170000
Ar 7.359686e-01 0.000000e+00 0.000000e+00
1
Step 171000
Ar 8.790289e-01 0.000000e+00 0.000000e+00
1
Step 172000
Ar 9.364492e-01 0.000000e+00 0.000000e+00
1
Step 173000
Ar 8.245771e-01 0.000000e+00 0.000000e+00
1
Step 174000
Ar 7.557197e-01 0.000000e+00 0.000000e+00
1
Step 175000
Ar 7.869083e-01 0.000000e+00 0.000000e+00
1
Step 176000
Ar 8.855533e-01 0.000000e+00 0.000000e+00
1
Step 177000
Ar 8.023431e-01 0.000000e+00 0.000000e+00
1
Step 178000
Ar 6.347585e-01 0.000000e+00 0.000000e+00
1
Step 179000
Ar 5.338225e-01 0.000000e+00 0.000000e+00
1
Step 180000
Ar 6.176115e-01 0.000000e+00 0.000000e+00
1
Step 181000
Ar 5.554975e-01 0.000000e+00 0.000000e+00
1
Step 182000
Ar 6.686888e-01 0.000000e+00 0.000000e+00
1
Step 183000
Ar 5.750027e-01 0.000000e+00 0.000000e+00
1
Step 184000
Ar 5.207147e-01 0.000000e+00 0.000000e+00
1
Step 185000
Ar 6.419510e-01 0.000000e+00 0.000000e+00
1
Step 186000
Ar 6.578601e-01 0.000000e+00 0.000000e+00
1
Step 187000
Ar 9.184674e-01 0.000000e+00 0.000000e+00
1
Step 188000
Ar 8.128804e-01 0.000000e+00 0.000000e+00
1
Step 189000
Ar 1.022691e+00 0.000000e+00 0.000000e+00
1
Step 190000
Ar 1.121720e+00 0.000000e+00 0.000000e+00
1
Step 191000
Ar 1.159797e+00 0.000000e+00 0.000000e+00
1
Step 192000
Ar 9.623180e-01 0.000000e+00 0.000000e+00
1
Step 193000
Ar 9.840418e-01 0.000000e+00 0.000000e+00
1
Step 194000
Ar 9.673348e-01 0.000000e+00 0.000000e+00
1
Step 195000
Ar 9.819042e-01 0.000000e+00 0.000000e+00
1
Step 196000
Ar 5.662208e-01 0.000000e+00 0.000000e+00
1
Step 197000
Ar 6.027372e-01 0.000000e+00 0.000000e+00
1
Step 198000
Ar 6.279562e-01 0.000000e+00 0.000000e+00
1
Step 199000
Ar 5.033144e-02 0.000000e+00 0.000000e+00
1
Step 200000
Ar -1.033655e+00 0.000000e+00 0.000000e+00
1
Step 201000
Ar -9.196885e-01 0.000000e+00 0.000000e+00
1
Step 202000
Ar -8.557043e-01 0.000000e+00 0.000000e+00
1
Step 203000
Ar -6.642133e-01 0.000000e+00 0.000000e+00
1
Step 204000
Ar -7.707161e-01 0.000000e+00 0.000000e+00
1
Step 205000
Ar -7.852688e-01 0.000000e+00 0.000000e+00
1
Step 206000
Ar -8.176892e-01 0.000000e+00 0.000000e+00
1
Step 207000
Ar -8.796975e-01 0.000000e+00 0.000000e+00
1
Step 208000
Ar -9.769459e-01 0.000000e+00 0.000000e+00
1
Step 209000
Ar -9.384374e-01 0.000000e+00 0.000000e+00
1
Step 210000
Ar -8.937752e-01 0.000000e+00 0.000000e+00
1
Step 211000
Ar -6.813655e-01 0.000000e+00 0.000000e+00
1
Step 212000
Ar -5.656384e-01 0.000000e+00 0.000000e+00
1
Step 213000
Ar -1.155897e+00 0.000000e+00 0.000000e+00
1
Step 214000
Ar -1.118358e+00 0.000000e+00 0.000000e+00
1
Step 215000
Ar -1.134271e+00 0.000000e+00 0.000000e+00
1
Step 216000
Ar -1.006461e+00 0.000000e+00 0.000000e+00
1
Step 217000
Ar -9.922231e-01 0.000000e+00 0.000000e+00
1
Step 218000
Ar -1.083982e+00 0.000000e+00 0.000000e+00
1
Step 219000
Ar -1.101558e+00 0.000000e+00 0.000000e+00
1
Step 220000
Ar -1.055602e+00 0.000000e+00 0.000000e+00
1
Step 221000
Ar -1.217223e+00 0.000000e+00 0.000000e+00
1
Step 222000
Ar -1.245585e+00 0.000000e+00 0.000000e+00
1
Step 223000
Ar -1.184537e+00 0.000000e+00 0.000000e+00
1
Step 224000
Ar -9.706003e-01 0.000000e+00 0.000000e+00
1
Step 225000
Ar -9.295814e-01 0.000000e+00 0.000000e+00
1
Step 226000
Ar -9.464965e-01 0.000000e+00 0.000000e+00
1
Step 227000
Ar -9.600131e-01 0.000000e+00 0.000000e+00
1
Step 228000
Ar -8.344074e-01 0.000000e+00 0.000000e+00
1
Step 229000
Ar -9.053189e-01 0.000000e+00 0.000000e+00
1
Step 230000
Ar -7.137402e-01 0.000000e+00 0.000000e+00
1
Step 231000
Ar -6.940960e-01 0.000000e+00 0.000000e+00
1
Step 232000
Ar -8.775310e-01 0.000000e+00 0.000000e+00
1
Step 233000
Ar -7.636205e-01 0.000000e+00 0.000000e+00
1
Step 234000
Ar -6.006779e-01 0.000000e+00 0.000000e+00
1
Step 235000
Ar -6.487598e-01 0.000000e+00 0.000000e+00
1
Step 236000
Ar -6.391220e-01 0.000000e+00 0.000000e+00
1
Step 237000
Ar -6.156098e-01 0.000000e+00 0.000000e+00
1
Step 238000
Ar -6.269604e-01 0.000000e+00 0.000000e+00
1
Step 239000
Ar -7.084814e-01 0.000000e+00 0.000000e+00
1
Step 240000
Ar -6.844906e-01 0.000000e+00 0.000000e+00
1
Step 241000
Ar -7.426329e-01 0.000000e+00 0.000000e+00
1
Step 242000
Ar -7.553903e-01 0.000000e+00 0.000000e+00
1
Step 243000
Ar -7.315534e-01 0.000000e+00 0.000000e+00
1
Step 244000
Ar -8.595877e-01 0.000000e+00 0.000000e+00
1
Step 245000
Ar -8.055664e-01 0.000000e+00 0.000000e+00
1
Step 246000
Ar -8.428917e-01 0.000000e+00 0.000000e+00
1
Step 247000
Ar -7.966927e-01 0.000000e+00 0.000000e+00
1
Step 248000
Ar -7.224559e-01 0.000000e+00 0.000000e+00
1
Step 249000
Ar -7.513011e-01 0.000000e+00 0.000000e+00
1
Step 250000
Ar -7.265030e-01 0.000000e+00 0.000000e+00
1
Step 251000
Ar -8.689489e-01 0.000000e+00 0.000000e+00
1
Step 252000
Ar -7.733463e-01 0.000000e+00 0.000000e+00
1
Step 253000
Ar -8.221827e-01 0.000000e+00 0.000000e+00
1
Step 254000
Ar -8.323097e-01 0.000000e+00 0.000000e+00
1
Step 255000
Ar -8.649285e-01 0.000000e+00 0.000000e+00
1
Step 256000
Ar -1.087243e+00 0.000000e+00 0.000000e+00
1
Step 257000
Ar -1.176337e+00 0.000000e+00 0.000000e+00
1
Step 258000
Ar -1.167071e+00 0.000000e+00 0.000000e+00
1
Step 259000
Ar -1.110217e+00 0.000000e+00 0.000000e+00
1
Step 260000
Ar -1.127951e+00 0.000000e+00 0.000000e+00
1
Step 261000
Ar -1.095812e+00 0.000000e+00 0.000000e+00
1
Step 262000
Ar -1.147042e+00 0.000000e+00 0.000000e+00
1
Step 263000
Ar -1.074540e+00 0.000000e+00 0.000000e+00
1
Step 264000
Ar -1.045097e+00 0.000000e+00 0.000000e+00
1
Step 265000
Ar -1.019167e+00 0.000000e+00 0.000000e+00
1
Step 266000
Ar -1.021009e+00 0.000000e+00 0.000000e+00
1
Step 267000
Ar -1.065704e+00 0.000000e+00 0.000000e+00
1
Step 268000
Ar -1.026389e+00 0.000000e+00 0.000000e+00
1
Step 269000
Ar -1.198490e+00 0.000000e+00 0.000000e+00
1
Step 270000
Ar -1.206886e+00 0.000000e+00 0.000000e+00
1
Step 271000
Ar -1.258652e+00 0.000000e+00 0.000000e+00
1
Step 272000
Ar -1.320756e+00 0.000000e+00 0.000000e+00
1
Step 273000
Ar -1.288352e+00 0.000000e+00 0.000000e+00
1
Step 274000
Ar -1.271175e+00 0.000000e+00 0.000000e+00
1
Step 275000
Ar -1.142526e+00 0.000000e+00 0.000000e+00
1
Step 276000
Ar -1.200370e+00 0.000000e+00 0.000000e+00
1
Step 277000
Ar -1.340833e+00 0.000000e+00 0.000000e+00
1
Step 278000
Ar -1.306741e+00 0.000000e+00 0.000000e+00
1
Step 279000
Ar -1.225805e+00 0.000000e+00 0.000000e+00
1
Step 280000
Ar -1.240032e+00 0.000000e+00 0.000000e+00
1
Step 281000
Ar -1.230062e+00 0.000000e+00 0.000000e+00
1
Step 282000
Ar -1.332675e+00 0.000000e+00 0.000000e+00
1
Step 283000
Ar -1.283587e+00 0.000000e+00 0.000000e+00
1
Step 284000
Ar -1.274484e+00 0.000000e+00 0.000000e+00
1
Step 285000
Ar -1.355400e+00 0.000000e+00 0.000000e+00
1
Step 286000
Ar -1.377906e+00 0.000000e+00 0.000000e+00
1
Step 287000
Ar -1.417464e+00 0.000000e+00 0.000000e+00
1
Step 288000
Ar -1.317249e+00 0.000000e+00 0.000000e+00
1
Step 289000
Ar -1.123626e+00 0.000000e+00 0.000000e+00
1
Step 290000
Ar -1.299505e+00 0.000000e+00 0.000000e+00
1
Step 291000
Ar -1.256905e+00 0.000000e+00 0.000000e+00
1
Step 292000
Ar -1.214188e+00 0.000000e+00 0.000000e+00
1
Step 293000
Ar -1.040263e+00 0.000000e+00 0.000000e+00
1
Step 294000
Ar -1.049779e+00 0.000000e+00 0.000000e+00
1
Step 295000
Ar -9.539282e-01 0.000000e+00 0.000000e+00
1
Step 296000
Ar -1.000882e+00 0.000000e+00 0.000000e+00
1
Step 297000
Ar -9.813565e-01 0.000000e+00 0.000000e+00
1
Step 298000
Ar -9.174267e-01 0.000000e+00 0.000000e+00
1
Step 299000
Ar -1.009420e+00 0.000000e+00 0.000000e+00
1
Step 300000
Ar -9.007008e-01 0.000000e+00 0.000000e+00
1
Step 301000
Ar -8.910746e-01 0.000000e+00 0.000000e+00
1
Step 302000
Ar -8.854244e-01 0.000000e+00 0.000000e+00
1
Step 303000
Ar -9.337912e-01 0.000000e+00 0.000000e+00
1
Step 304000
Ar -9.700170e-01 0.000000e+00 0.000000e+00
1
Step 305000
Ar -9.120407e-01 0.000000e+00 0.000000e+00
1
Step 306000
Ar -7.362875e-01 0.000000e+00 0.000000e+00
1
Step 307000
Ar -9.440558e-01 0.000000e+00 0.000000e+00
1
Step 308000
Ar -7.845037e-01 0.000000e+00 0.000000e+00
1
Step 309000
Ar -8.119416e-01 0.000000e+00 0.000000e+00
1
Step 310000
Ar -8.448546e-01 0.000000e+00 0.000000e+00
1
Step 311000
Ar -7.973781e-01 0.000000e+00 0.000000e+00
1
Step 312000
Ar -7.634864e-01 0.000000e+00 0.000000e+00
1
Step 313000
Ar -5.315845e-01 0.000000e+00 0.000000e+00
1
Step 314000
Ar -4.652127e-01 0.000000e+00 0.000000e+00
1
Step 315000
Ar -4.352382e-01 0.000000e+00 0.000000e+00
1
Step 316000
Ar -3.544802e-01 0.000000e+00 0.000000e+00
1
Step 317000
Ar -2.326734e-01 0.000000e+00 0.000000e+00
1
Step 318000
Ar -8.907344e-02 0.000000e+00 0.000000e+00
1
Step 319000
Ar 6.679663e-03 0.000000e+00 0.000000e+00
1
Step 320000
Ar 3.771777e-02 0.000000e+00 0.000000e+00
1
Step 321000
Ar 4.819656e-01 0.000000e+00 0.000000e+00
1
Step 322000
Ar 4.272146e-01 0.000000e+00 0.000000e+00
1
Step 323000
Ar 3.989275e-01 0.000000e+00 0.000000e+00
1
Step 324000
Ar 3.208526e-01 0.000000e+00 0.000000e+00
1
Step 325000
Ar 2.495863e-01 0.000000e+00 0.000000e+00
1
Step 326000
Ar 4.643694e-01 0.000000e+00 0.000000e+00
1
Step 327000
Ar 4.487361e-01 0.000000e+00 0.000000e+00
1
Step 328000
Ar 5.112774e-01 0.000000e+00 0.000000e+00
1
Step 329000
Ar 5.002705e-01 0.000000e+00 0.000000e+00
1
Step 330000
Ar 4.406899e-01 0.000000e+00 0.000000e+00
1
Step 331000
Ar 4.131998e-01 0.000000e+00 0.000000e+00
1
Step 332000
Ar 3.862110e-01 0.000000e+00 0.000000e+00
1
Step 333000
Ar 3.761879e-01 0.000000e+00 0.000000e+00
1
Step 334000
Ar 3.636603e-01 0.000000e+00 0.000000e+00
1
Step 335000
Ar 3.459529e-01 0.000000e+00 0.000000e+00
1
Step 336000
Ar 3.539475e-01 0.000000e+00 0.000000e+00
1
Step 337000
Ar 7.297488e-01 0.000000e+00 0.000000e+00
1
Step 338000
Ar 8.370645e-01 0.000000e+00 0.000000e+00
1
Step 339000
Ar 9.346004e-01 0.000000e+00 0.000000e+00
1
Step 340000
Ar 8.946966e-01 0.000000e+00 0.000000e+00
1
Step 341000
Ar 9.297011e-01 0.000000e+00 0.000000e+00
1
Step 342000
Ar 7.712252e-01 0.000000e+00 0.000000e+00
1
Step 343000
Ar 8.697321e-01 0.000000e+00 0.000000e+00
1
Step 344000
Ar 9.060981e-01 0.000000e+00 0.000000e+00
1
Step 345000
Ar 6.875912e-01 0.000000e+00 0.000000e+00
1
Step 346000
Ar 6.939677e-01 0.000000e+00 0.000000e+00
1
Step 347000
Ar 5.290556e-01 0.000000e+00 0.000000e+00
1
Step 348000
Ar 4.910907e-01 0.000000e+00 0.000000e+00
1
Step 349000
Ar 1.136954e-01 0.000000e+00 0.000000e+00
1
Step 350000
Ar 1.981203e-02 0.000000e+00 0.000000e+00
1
Step 351000
Ar -2.031180e-01 0.000000e+00 0.000000e+00
1
Step 352000
Ar -3.238442e-01 0.000000e+00 0.000000e+00
1
Step 353000
Ar -4.444311e-01 0.000000e+00 0.000000e+00
1
Step 354000
Ar -5.907118e-01 0.000000e+00 0.000000e+00
1
Step 355000
Ar -2.762836e-01 0.000000e+00 0.000000e+00
1
Step 356000
Ar -4.035078e-01 0.000000e+00 0.000000e+00
1
Step 357000
Ar -3.361124e-01 0.000000e+00 0.000000e+00
1
Step 358000
Ar -3.926805e-01 0.000000e+00 0.000000e+00
1
Step 359000
Ar -2.884971e-01 0.000000e+00 0.000000e+00
1
Step 360000
Ar -2.215952e-01 0.000000e+00 0.000000e+00
1
Step 361000
Ar -1.112413e-01 0.000000e+00 0.000000e+00
1
Step 362000
Ar -2.854671e-02 0.000000e+00 0.000000e+00
1
Step 363000
Ar -1.039828e-01 0.000000e+00 0.000000e+00
1
Step 364000
Ar -5.099484e-02 0.000000e+00 0.000000e+00
1
Step 365000
Ar -1.506408e-02 0.000000e+00 0.000000e+00
1
Step 366000
Ar 3.282548e-01 0.000000e+00 0.000000e+00
1
Step 367000
Ar 4.595965e-01 0.000000e+00 0.000000e+00
1
Step 368000
Ar 4.095455e-01 0.000000e+00 0.000000e+00
1
Step 369000
Ar 4.878341e-01 0.000000e+00 0.000000e+00
1
Step 370000
Ar 8.227383e-01 0.000000e+00 0.000000e+00
1
Step 371000
Ar 8.540189e-01 0.000000e+00 0.000000e+00
1
Step 372000
Ar 8.470477e-01 0.000000e+00 0.000000e+00
1
Step 373000
Ar 5.976919e-01 0.000000e+00 0.000000e+00
1
Step 374000
Ar 5.525428e-01 0.000000e+00 0.000000e+00
1
Step 375000
Ar 5.226324e-01 0.000000e+00 0.000000e+00
1
Step 376000
Ar 2.750880e-01 0.000000e+00 0.000000e+00
1
Step 377000
Ar 2.004033e-01 0.000000e+00 0.000000e+00
1
Step 378000
Ar 3.117946e-01 0.000000e+00 0.000000e+00
1
Step 379000
Ar 2.604565e-01 0.000000e+00 0.000000e+00
1
Step 380000
Ar 7.205109e-01 0.000000e+00 0.000000e+00
1
Step 381000
Ar 6.091548e-01 0.000000e+00 0.000000e+00
1
Step 382000
Ar 7.491162e-01 0.000000e+00 0.000000e+00
1
Step 383000
Ar 7.825014e-01 0.000000e+00 0.000000e+00
1
Step 384000
Ar 7.909739e-01 0.000000e+00 0.000000e+00
1
Step 385000
Ar 8.031738e-01 0.000000e+00 0.000000e+00
1
Step 386000
Ar 1.014847e+00 0.000000e+00 0.000000e+00
1
Step 387000
Ar 1.189175e+00 0.000000e+00 0.000000e+00
1
Step 388000
Ar 1.080081e+00 0.000000e+00 0.000000e+00
1
Step 389000
Ar 1.046049e+00 0.000000e+00 0.000000e+00
1
Step 390000
Ar 1.064060e+00 0.000000e+00 0.000000e+00
1
Step 391000
Ar 1.072133e+00 0.000000e+00 0.000000e+00
1
Step 392000
Ar 1.139118e+00 0.000000e+00 0.000000e+00
1
Step 393000
Ar 1.176061e+00 0.000000e+00 0.000000e+00
1
Step 394000
Ar 1.149669e+00 0.000000e+00 0.000000e+00
1
Step 395000
Ar 8.704288e-01 0.000000e+00 0.000000e+00
1
Step 396000
Ar 7.095487e-01 0.000000e+00 0.000000e+00
1
Step 397000
Ar 7.335409e-01 0.000000e+00 0.000000e+00
1
Step 398000
Ar 7.743984e-01 0.000000e+00 0.000000e+00
1
Step 399000
Ar 8.436343e-01 0.000000e+00 0.000000e+00
1
Step 400000
Ar 8.302587e-01 0.000000e+00 0.000000e+00
1
Step 401000
Ar 1.314090e+00 0.000000e+00 0.000000e+00
1
Step 402000
Ar 1.231249e+00 0.000000e+00 0.000000e+00
1
Step 403000
Ar 1.270570e+00 0.000000e+00 0.000000e+00
1
Step 404000
Ar 1.278113e+00 0.000000e+00 0.000000e+00
1
Step 405000
Ar 1.307429e+00 0.000000e+00 0.000000e+00
1
Step 406000
Ar 1.294814e+00 0.000000e+00 0.000000e+00
1
Step 407000
Ar 1.248208e+00 0.000000e+00 0.000000e+00
1
Step 408000
Ar 1.204452e+00 0.000000e+00 0.000000e+00
1
Step 409000
Ar 1.122135e+00 0.000000e+00 0.000000e+00
1
Step 410000
Ar 1.170742e+00 0.000000e+00 0.000000e+00
1
Step 411000
Ar 9.136776e-01 0.000000e+00 0.000000e+00
1
Step 412000
Ar 9.256980e-01 0.000000e+00 0.000000e+00
1
Step 413000
Ar 8.805033e-01 0.000000e+00 0.000000e+00
1
Step 414000
Ar 9.049851e-01 0.000000e+00 0.000000e+00
1
Step 415000
Ar 6.164615e-01 0.000000e+00 0.000000e+00
1
Step 416000
Ar 5.456199e-01 0.000000e+00 0.000000e+00
1
Step 417000
Ar 5.411957e-01 0.000000e+00 0.000000e+00
1
Step 418000
Ar 7.042670e-01 0.000000e+00 0.000000e+00
1
Step 419000
Ar 6.634912e-01 0.000000e+00 0.000000e+00
1
Step 420000
Ar 5.858032e-01 0.000000e+00 0.000000e+00
1
Step 421000
Ar 5.833008e-01 0.000000e+00 0.000000e+00
1
Step 422000
Ar 6.888521e-01 0.000000e+00 0.000000e+00
1
Step 423000
Ar 6.487893e-01 0.000000e+00 0.000000e+00
1
Step 424000
Ar 6.273225e-01 0.000000e+00 0.000000e+00
1
Step 425000
Ar 3.935167e-01 0.000000e+00 0.000000e+00
1
Step 426000
Ar 1.487435e-01 0.000000e+00 0.000000e+00
1
Step 427000
Ar 1.631066e-01 0.000000e+00 0.000000e+00
1
Step 428000
Ar 1.000370e-01 0.000000e+00 0.000000e+00
1
Step 429000
Ar 7.080786e-02 0.000000e+00 0.000000e+00
1
Step 430000
Ar 2.341352e-01 0.000000e+00 0.000000e+00
1
Step 431000
Ar 2.196410e-01 0.000000e+00 0.000000e+00
1
Step 432000
Ar 1.896888e-01 0.000000e+00 0.000000e+00
1
Step 433000
Ar 3.732568e-01 0.000000e+00 0.000000e+00
1
Step 434000
Ar 3.011785e-01 0.000000e+00 0.000000e+00
1
Step 435000
Ar 2.132737e-01 0.000000e+00 0.000000e+00
1
Step 436000
Ar 1.729177e-01 0.000000e+00 0.000000e+00
1
Step 437000
Ar 7.907527e-02 0.000000e+00 0.000000e+00
1
Step 438000
Ar 8.982679e-02 0.000000e+00 0.000000e+00
1
Step 439000
Ar 1.365083e-01 0.000000e+00 0.000000e+00
1
Step 440000
Ar -5.785053e-01 0.000000e+00 0.000000e+00
1
Step 441000
Ar -5.558953e-01 0.000000e+00 0.000000e+00
1
Step 442000
Ar -4.925743e-01 0.000000e+00 0.000000e+00
1
Step 443000
Ar -6.726867e-01 0.000000e+00 0.000000e+00
1
Step 444000
Ar -6.572243e-01 0.000000e+00 0.000000e+00
1
Step 445000
Ar -5.467771e-01 0.000000e+00 0.000000e+00
1
Step 446000
Ar -5.151242e-01 0.000000e+00 0.000000e+00
1
Step 447000
Ar -4.802112e-01 0.000000e+00 0.000000e+00
1
Step 448000
Ar -5.408422e-01 0.000000e+00 0.000000e+00
1
Step 449000
Ar -5.197682e-01 0.000000e+00 0.000000e+00
1
Step 450000
Ar -6.064102e-01 0.000000e+00 0.000000e+00
1
Step 451000
Ar -6.484259e-01 0.000000e+00 0.000000e+00
1
Step 452000
Ar -3.722994e-01 0.000000e+00 0.000000e+00
1
Step 453000
Ar -5.016958e-01 0.000000e+00 0.000000e+00
1
Step 454000
Ar -3.452340e-01 0.000000e+00 0.000000e+00
1
Step 455000
Ar -3.033655e-01 0.000000e+00 0.000000e+00
1
Step 456000
Ar -1.445038e-01 0.000000e+00 0.000000e+00
1
Step 457000
Ar -1.863636e-01 0.000000e+00 0.000000e+00
1
Step 458000
Ar -4.140017e-01 0.000000e+00 0.000000e+00
1
Step 459000
Ar -4.463777e-01 0.000000e+00 0.000000e+00
1
Step 460000
Ar -4.718135e-01 0.000000e+00 0.000000e+00
1
Step 461000
Ar -4.619577e-01 0.000000e+00 0.000000e+00
1
Step 462000
Ar -4.552566e-01 0.000000e+00 0.000000e+00
1
Step 463000
Ar -3.122524e-01 0.000000e+00 0.000000e+00
1
Step 464000
Ar -1.534875e-01 0.000000e+00 0.000000e+00
1
Step 465000
Ar -1.295961e-01 0.000000e+00 0.000000e+00
1
Step 466000
Ar -2.432537e-01 0.000000e+00 0.000000e+00
1
Step 467000
Ar -2.639268e-01 0.000000e+00 0.000000e+00
1
Step 468000
Ar -1.932472e-01 0.000000e+00 0.000000e+00
1
Step 469000
Ar -2.949867e-01 0.000000e+00 0.000000e+00
1
Step 470000
Ar -4.865567e-01 0.000000e+00 0.000000e+00
1
Step 471000
Ar -5.754341e-01 0.000000e+00 0.000000e+00
1
Step 472000
Ar -5.099956e-01 0.000000e+00 0.000000e+00
1
Step 473000
Ar -6.728170e-01 0.000000e+00 0.000000e+00
1
Step 474000
Ar -7.444636e-01 0.000000e+00 0.000000e+00
1
Step 475000
Ar -7.015617e-01 0.000000e+00 0.000000e+00
1
Step 476000
Ar -7.176332e-01 0.000000e+00 0.000000e+00
1
Step 477000
Ar -5.890051e-01 0.000000e+00 0.000000e+00
1
Step 478000
Ar -1.152672e+00 0.000000e+00 0.000000e+00
1
Step 479000
Ar -1.188711e+00 0.000000e+00 0.000000e+00
1
Step 480000
Ar -1.164952e+00 0.000000e+00 0.000000e+00
1
Step 481000
Ar -1.174498e+00 0.000000e+00 0.000000e+00
1
Step 482000
Ar -1.079318e+00 0.000000e+00 0.000000e+00
1
Step 483000
Ar -1.063523e+00 0.000000e+00 0.000000e+00
1
Step 484000
Ar -9.838038e-01 0.000000e+00 0.000000e+00
1
Step 485000
Ar -9.926596e-01 0.000000e+00 0.000000e+00
1
Step 486000
Ar -1.147538e+00 0.000000e+00 0.000000e+00
1
Step 487000
Ar -8.282622e-01 0.000000e+00 0.000000e+00
1
Step 488000
Ar -5.697114e-01 0.000000e+00 0.000000e+00
1
Step 489000
Ar -5.536338e-01 0.000000e+00 0.000000e+00
1
Step 490000
Ar -5.340716e-01 0.000000e+00 0.000000e+00
1
Step 491000
Ar -8.770880e-01 0.000000e+00 0.000000e+00
1
Step 492000
Ar -6.253880e-01 0.000000e+00 0.000000e+00
1
Step 493000
Ar -6.737512e-01 0.000000e+00 0.000000e+00
1
Step 494000
Ar -7.764514e-01 0.000000e+00 0.000000e+00
1
Step 495000
Ar -8.053384e-01 0.000000e+00 0.000000e+00
1
Step 496000
Ar -8.537199e-01 0.000000e+00 0.000000e+00
1
Step 497000
Ar -7.895752e-01 0.000000e+00 0.000000e+00
1
Step 498000
Ar -8.678992e-01 0.000000e+00 0.000000e+00
1
Step 499000
Ar -8.163306e-01 0.000000e+00 0.000000e+00
1
Step 500000
Ar -6.917182e-01 0.000000e+00 0.000000e+00
1
Step 501000
Ar -7.025046e-01 0.000000e+00 0.000000e+00
1
Step 502000
Ar -7.527736e-01 0.000000e+00 0.000000e+00
1
Step 503000
Ar -6.889562e-01 0.000000e+00 0.000000e+00
1
Step 504000
Ar -6.173269e-01 0.000000e+00 0.000000e+00
1
Step 505000
Ar -6.391890e-01 0.000000e+00 0.000000e+00
1
Step 506000
Ar -6.057442e-01 0.000000e+00 0.000000e+00
1
Step 507000
Ar -4.955543e-01 0.000000e+00 0.000000e+00
1
Step 508000
Ar -5.868834e-01 0.000000e+00 0.000000e+00
1
Step 509000
Ar -3.831346e-01 0.000000e+00 0.000000e+00
1
Step 510000
Ar -4.229512e-01 0.000000e+00 0.000000e+00
1
Step 511000
Ar -3.682780e-01 0.000000e+00 0.000000e+00
1
Step 512000
Ar -3.320347e-01 0.000000e+00 0.000000e+00
1
Step 513000
Ar -2.518136e-01 0.000000e+00 0.000000e+00
1
Step 514000
Ar -2.687136e-01 0.000000e+00 0.000000e+00
1
Step 515000
Ar 4.668722e-02 0.000000e+00 0.000000e+00
1
Step 516000
Ar 1.223194e-01 0.000000e+00 0.000000e+00
1
Step 517000
Ar 2.266012e-01 0.000000e+00 0.000000e+00
1
Step 518000
Ar 1.339463e-01 0.000000e+00 0.000000e+00
1
Step 519000
Ar -7.190286e-02 0.000000e+00 0.000000e+00
1
Step 520000
Ar -2.735571e-03 0.000000e+00 0.000000e+00
1
Step 521000
Ar -3.897349e-02 0.000000e+00 0.000000e+00
1
Step 522000
Ar -4.335634e-02 0.000000e+00 0.000000e+00
1
Step 523000
Ar -1.728387e-01 0.000000e+00 0.000000e+00
1
Step 524000
Ar -9.397344e-02 0.000000e+00 0.000000e+00
1
Step 525000
Ar -1.224925e-01 0.000000e+00 0.000000e+00
1
Step 526000
Ar -1.621406e-01 0.000000e+00 0.000000e+00
1
Step 527000
Ar -1.181394e-01 0.000000e+00 0.000000e+00
1
Step 528000
Ar 2.426559e-02 0.000000e+00 0.000000e+00
1
Step 529000
Ar 3.012978e-02 0.000000e+00 0.000000e+00
1
Step 530000
Ar 6.390445e-02 0.000000e+00 0.000000e+00
1
Step 531000
Ar 5.755126e-02 0.000000e+00 0.000000e+00
1
Step 532000
Ar 1.091558e-01 0.000000e+00 0.000000e+00
1
Step 533000
Ar 1.283376e-01 0.000000e+00 0.000000e+00
1
Step 534000
Ar 5.110942e-01 0.000000e+00 0.000000e+00
1
Step 535000
Ar 5.043764e-01 0.000000e+00 0.000000e+00
1
Step 536000
Ar 2.826059e-01 0.000000e+00 0.000000e+00
1
Step 537000
Ar 3.367130e-01 0.000000e+00 0.000000e+00
1
Step 538000
Ar 2.953935e-01 0.000000e+00 0.000000e+00
1
Step 539000
Ar 3.317022e-01 0.000000e+00 0.000000e+00
1
Step 540000
Ar 4.250429e-01 0.000000e+00 0.000000e+00
1
Step 541000
Ar 4.710613e-01 0.000000e+00 0.000000e+00
1
Step 542000
Ar 4.354746e-01 0.000000e+00 0.000000e+00
1
Step 543000
Ar 4.751738e-01 0.000000e+00 0.000000e+00
1
Step 544000
Ar 4.478914e-01 0.000000e+00 0.000000e+00
1
Step 545000
Ar 5.944229e-01 0.000000e+00 0.000000e+00
1
Step 546000
Ar 5.666001e-01 0.000000e+00 0.000000e+00
1
Step 547000
Ar 5.542380e-01 0.000000e+00 0.000000e+00
1
Step 548000
Ar 8.873352e-01 0.000000e+00 0.000000e+00
1
Step 549000
Ar 7.656473e-01 0.000000e+00 0.000000e+00
1
Step 550000
Ar 7.399616e-01 0.000000e+00 0.000000e+00
1
Step 551000
Ar 7.606633e-01 0.000000e+00 0.000000e+00
1
Step 552000
Ar 6.731571e-01 0.000000e+00 0.000000e+00
1
Step 553000
Ar 8.378930e-01 0.000000e+00 0.000000e+00
1
Step 554000
Ar 1.325873e+00 0.000000e+00 0.000000e+00
1
Step 555000
Ar 1.359540e+00 0.000000e+00 0.000000e+00
1
Step 556000
Ar 1.341286e+00 0.000000e+00 0.000000e+00
1
Step 557000
Ar 1.397271e+00 0.000000e+00 0.000000e+00
1
Step 558000
Ar 1.263386e+00 0.000000e+00 0.000000e+00
1
Step 559000
Ar 1.225330e+00 0.000000e+00 0.000000e+00
1
Step 560000
Ar 1.346130e+00 0.000000e+00 0.000000e+00
1
Step 561000
Ar 1.371919e+00 0.000000e+00 0.000000e+00
1
Step 562000
Ar 1.285873e+00 0.000000e+00 0.000000e+00
1
Step 563000
Ar 1.257502e+00 0.000000e+00 0.000000e+00
1
Step 564000
Ar 1.298800e+00 0.000000e+00 0.000000e+00
1
Step 565000
Ar 1.331776e+00 0.000000e+00 0.000000e+00
1
Step 566000
Ar 1.184130e+00 0.000000e+00 0.000000e+00
1
Step 567000
Ar 9.559334e-01 0.000000e+00 0.000000e+00
1
Step 568000
Ar 9.685595e-01 0.000000e+00 0.000000e+00
1
Step 569000
Ar 1.108887e+00 0.000000e+00 0.000000e+00
1
Step 570000
Ar 1.002585e+00 0.000000e+00 0.000000e+00
1
Step 571000
Ar 1.088730e+00 0.000000e+00 0.000000e+00
1
Step 572000
Ar 1.237871e+00 0.000000e+00 0.000000e+00
1
Step 573000
Ar 1.320862e+00 0.000000e+00 0.000000e+00
1
Step 574000
Ar 1.205655e+00 0.000000e+00 0.000000e+00
1
Step 575000
Ar 1.096597e+00 0.000000e+00 0.000000e+00
1
Step 576000
Ar 1.184701e+00 0.000000e+00 0.000000e+00
1
Step 577000
Ar 1.039934e+00 0.000000e+00 0.000000e+00
1
Step 578000
Ar 1.049761e+00 0.000000e+00 0.000000e+00
1
Step 579000
Ar 1.136441e+00 0.000000e+00 0.000000e+00
1
Step 580000
Ar 1.160168e+00 0.000000e+00 0.000000e+00
1
Step 581000
Ar 1.109664e+00 0.000000e+00 0.000000e+00
1
Step 582000
Ar 1.124094e+00 0.000000e+00 0.000000e+00
1
Step 583000
Ar 8.603753e-01 0.000000e+00 0.000000e+00
1
Step 584000
Ar 9.862062e-01 0.000000e+00 0.000000e+00
1
Step 585000
Ar 9.515857e-01 0.000000e+00 0.000000e+00
1
Step 586000
Ar 9.571516e-01 0.000000e+00 0.000000e+00
1
Step 587000
Ar 9.485303e-01 0.000000e+00 0.000000e+00
1
Step 588000
Ar 8.994363e-01 0.000000e+00 0.000000e+00
1
Step 589000
Ar 8.188776e-01 0.000000e+00 0.000000e+00
1
Step 590000
Ar 7.833323e-01 0.000000e+00 0.000000e+00
1
Step 591000
Ar 8.602928e-01 0.000000e+00 0.000000e+00
1
Step 592000
Ar 8.899696e-01 0.000000e+00 0.000000e+00
1
Step 593000
Ar 1.010234e+00 0.000000e+00 0.000000e+00
1
Step 594000
Ar 1.027852e+00 0.000000e+00 0.000000e+00
1
Step 595000
Ar 1.060942e+00 0.000000e+00 0.000000e+00
1
Step 596000
Ar 1.082614e+00 0.000000e+00 0.000000e+00
1
Step 597000
Ar 9.780220e-01 0.000000e+00 0.000000e+00
1
Step 598000
Ar 9.639437e-01 0.000000e+00 0.000000e+00
1
Step 599000
Ar 9.195295e-01 0.000000e+00 0.000000e+00
1
Step 600000
Ar 9.303453e-01 0.000000e+00 0.000000e+00
1
Step 601000
Ar 9.990919e-01 0.000000e+00 0.000000e+00
1
Step 602000
Ar 1.156692e+00 0.000000e+00 0.000000e+00
1
Step 603000
Ar 1.133102e+00 0.000000e+00 0.000000e+00
1
Step 604000
Ar 1.066294e+00 0.000000e+00 0.000000e+00
1
Step 605000
Ar 1.146958e+00 0.000000e+00 0.000000e+00
1
Step 606000
Ar 1.177092e+00 0.000000e+00 0.000000e+00
1
Step 607000
Ar 1.437054e+00 0.000000e+00 0.000000e+00
1
Step 608000
Ar 1.417762e+00 0.000000e+00 0.000000e+00
1
Step 609000
Ar 1.424155e+00 0.000000e+00 0.000000e+00
1
Step 610000
Ar 1.497828e+00 0.000000e+00 0.000000e+00
1
Step 611000
Ar 1.457760e+00 0.000000e+00 0.000000e+00
1
Step 612000
Ar 1.379090e+00 0.000000e+00 0.000000e+00
1
Step 613000
Ar 1.388147e+00 0.000000e+00 0.000000e+00
1
Step 614000
Ar 1.356809e+00 0.000000e+00 0.000000e+00
1
Step 615000
Ar 1.228845e+00 0.000000e+00 0.000000e+00
1
Step 616000
Ar 1.415484e+00 0.000000e+00 0.000000e+00
1
Step 617000
Ar 1.247049e+00 0.000000e+00 0.000000e+00
1
Step 618000
Ar 1.300937e+00 0.000000e+00 0.000000e+00
1
Step 619000
Ar 1.403591e+00 0.000000e+00 0.000000e+00
1
Step 620000
Ar 1.275237e+00 0.000000e+00 0.000000e+00
1
Step 621000
Ar 1.193465e+00 0.000000e+00 0.000000e+00
1
Step 622000
Ar 1.287563e+00 0.000000e+00 0.000000e+00
1
Step 623000
Ar 1.264838e+00 0.000000e+00 0.000000e+00
1
Step 624000
Ar 1.349669e+00 0.000000e+00 0.000000e+00
1
Step 625000
Ar 1.384364e+00 0.000000e+00 0.000000e+00
1
Step 626000
Ar 1.312613e+00 0.000000e+00 0.000000e+00
1
Step 627000
Ar 1.331650e+00 0.000000e+00 0.000000e+00
1
Step 628000
Ar 1.212513e+00 0.000000e+00 0.000000e+00
1
Step 629000
Ar 1.210713e+00 0.000000e+00 0.000000e+00
1
Step 630000
Ar 1.504497e+00 0.000000e+00 0.000000e+00
1
Step 631000
Ar 1.525281e+00 0.000000e+00 0.000000e+00
1
Step 632000
Ar 1.515860e+00 0.000000e+00 0.000000e+00
1
Step 633000
Ar 1.304933e+00 0.000000e+00 0.000000e+00
1
Step 634000
Ar 1.365158e+00 0.000000e+00 0.000000e+00
1
Step 635000
Ar 1.407898e+00 0.000000e+00 0.000000e+00
1
Step 636000
Ar 1.351094e+00 0.000000e+00 0.000000e+00
1
Step 637000
Ar 1.480557e+00 0.000000e+00 0.000000e+00
1
Step 638000
Ar 1.449572e+00 0.000000e+00 0.000000e+00
1
Step 639000
Ar 1.464919e+00 0.000000e+00 0.000000e+00
1
Step 640000
Ar 1.491061e+00 0.000000e+00 0.000000e+00
1
Step 641000
Ar 1.434244e+00 0.000000e+00 0.000000e+00
1
Step 642000
Ar 1.444087e+00 0.000000e+00 0.000000e+00
1
Step 643000
Ar 1.471877e+00 0.000000e+00 0.000000e+00
1
Step 644000
Ar 1.426927e+00 0.000000e+00 0.000000e+00
1
Step 645000
Ar 1.232641e+00 0.000000e+00 0.000000e+00
1
Step 646000
Ar 1.073287e+00 0.000000e+00 0.000000e+00
1
Step 647000
Ar 1.084738e+00 0.000000e+00 0.000000e+00
1
Step 648000
Ar 1.097847e+00 0.000000e+00 0.000000e+00
1
Step 649000
Ar 1.164787e+00 0.000000e+00 0.000000e+00
1
Step 650000
Ar 1.145445e+00 0.000000e+00 0.000000e+00
1
Step 651000