1
Step 120000
Ar 1.134915e+00 0.000000e+00 0.000000e+00
1
Step 121000
Ar 9.843001e-01 0.000000e+00 0.000000e+00
1
Step 122000
Ar 7.981220e-01 0.000000e+00 0.000000e+00
1
Step 123000
Ar 7.050325e-01 0.000000e+00 0.000000e+00
1
Step 124000
Ar 7.518891e-01 0.000000e+00 0.000000e+00
1
Step 125000
Ar 1.124737e+00 0.000000e+00 0.000000e+00
1
Step 126000
Ar 1.150086e+00 0.000000e+00 0.000000e+00
1
Step 127000
Ar 1.218102e+00 0.000000e+00 0.000000e+00
1
Step 128000
Ar 9.673585e-01 0.000000e+00 0.000000e+00
1
Step 129000
Ar 1.065641e+00 0.000000e+00 0.000000e+00
1
Step 130000
Ar 1.093859e+00 0.000000e+00 0.000000e+00
1
Step 131000
Ar 1.076437e+00 0.000000e+00 0.000000e+00
1
Step 132000
Ar 1.097017e+00 0.000000e+00 0.000000e+00
1
Step 133000
Ar 1.089324e+00 0.000000e+00 0.000000e+00
1
Step 134000
Ar 1.082505e+00 0.000000e+00 0.000000e+00
1
Step 135000
Ar 1.081954e+00 0.000000e+00 0.000000e+00
1
Step 136000
Ar 1.019219e+00 0.000000e+00 0.000000e+00
1
Step 137000
Ar 9.328446e-01 0.000000e+00 0.000000e+00
1
Step 138000
Ar 9.666367e-01 0.000000e+00 0.000000e+00
1
Step 139000
Ar 1.050911e+00 0.000000e+00 0.000000e+00
1
Step 140000
Ar 1.041400e+00 0.000000e+00 0.000000e+00
1
Step 141000
Ar 1.039091e+00 0.000000e+00 0.000000e+00
1
Step 142000
Ar 9.392120e-01 0.000000e+00 0.000000e+00
1
Step 143000
Ar 7.937962e-01 0.000000e+00 0.000000e+00
1
Step 144000
Ar 6.458226e-01 0.000000e+00 0.000000e+00
1
Step 145000
Ar 7.597606e-01 0.000000e+00 0.000000e+00
1
Step 146000
Ar 7.480205e-01 0.000000e+00 0.000000e+00
1
Step 147000
Ar 7.957288e-01 0.000000e+00 0.000000e+00
1
Step 148000
Ar 1.069504e+00 0.000000e+00 0.000000e+00
1
Step 149000
Ar 9.957048e-01 0.000000e+00 0.000000e+00
1
Step 150000
Ar 9.792815e-01 0.000000e+00 0.000000e+00
1
Step 151000
Ar 9.993544e-01 0.000000e+00 0.000000e+00
1
Step 152000
Ar 9.904735e-01 0.000000e+00 0.000000e+00
1
Step 153000
Ar 1.113599e+00 0.000000e+00 0.000000e+00
1
Step 154000
Ar 9.003006e-01 0.000000e+00 0.000000e+00
1
Step 155000
Ar 8.485552e-01 0.000000e+00 0.000000e+00
1
Step 156000
Ar 8.486012e-01 0.000000e+00 0.000000e+00
1
Step 157000
Ar 7.349251e-01 0.000000e+00 0.000000e+00
1
Step 158000
Ar 7.938803e-01 0.000000e+00 0.000000e+00
1
Step 159000
Ar 6.537089e-01 0.000000e+00 0.000000e+00
1
Step 160000
Ar 7.972071e-01 0.000000e+00 0.000000e+00
1
Step 161000
Ar 7.766584e-01 0.000000e+00 0.000000e+00
1
Step 162000
Ar 7.695187e-01 0.000000e+00 0.000000e+00
1
Step 163000
Ar 5.115402e-01 0.000000e+00 0.000000e+00
1
Step 164000
Ar 6.731539e-01 0.000000e+00 0.000000e+00
1
Step 165000
Ar 6.740639e-01 0.000000e+00 0.000000e+00
1
Step 166000
Ar 6.702201e-01 0.000000e+00 0.000000e+00
1
Step 167000
Ar 6.225354e-01 0.000000e+00 0.000000e+00
1
Step 168000
Ar 5.679594e-01 0.000000e+00 0.000000e+00
1
Step 169000
Ar 6.476461e-01 0.000000e+00 0.000000e+00
1
Step 170000
Ar 3.568884e-01 0.000000e+00 0.000000e+00
1
Step 171000
Ar 5.877511e-01 0.000000e+00 0.000000e+00
1
Step 172000
Ar 5.740428e-01 0.000000e+00 0.000000e+00
1
Step 173000
Ar 6.054217e-01 0.000000e+00 0.000000e+00
1
Step 174000
Ar 6.107349e-01 0.000000e+00 0.000000e+00
1
Step 175000
Ar 7.711609e-01 0.000000e+00 0.000000e+00
1
Step 176000
Ar 7.903764e-01 0.000000e+00 0.000000e+00
1
Step 177000
Ar 9.258320e-01 0.000000e+00 0.000000e+00
1
Step 178000
Ar 9.293206e-01 0.000000e+00 0.000000e+00
1
Step 179000
Ar 8.601962e-01 0.000000e+00 0.000000e+00
1
Step 180000
Ar 8.614140e-01 0.000000e+00 0.000000e+00
1
Step 181000
Ar 8.476298e-01 0.000000e+00 0.000000e+00
1
Step 182000
Ar 8.506243e-01 0.000000e+00 0.000000e+00
1
Step 183000
Ar 8.535214e-01 0.000000e+00 0.000000e+00
1
Step 184000
Ar 7.494485e-01 0.000000e+00 0.000000e+00
1
Step 185000
Ar 7.723414e-01 0.000000e+00 0.000000e+00
1
Step 186000
Ar 7.754144e-01 0.000000e+00 0.000000e+00
1
Step 187000
Ar 7.903042e-01 0.000000e+00 0.000000e+00
1
Step 188000
Ar 1.070710e+00 0.000000e+00 0.000000e+00
1
Step 189000
Ar 1.073555e+00 0.000000e+00 0.000000e+00
1
Step 190000
Ar 1.084489e+00 0.000000e+00 0.000000e+00
1
Step 191000
Ar 1.087502e+00 0.000000e+00 0.000000e+00
1
Step 192000
Ar 1.085255e+00 0.000000e+00 0.000000e+00
1
Step 193000
Ar 1.114250e+00 0.000000e+00 0.000000e+00
1
Step 194000
Ar 9.860076e-01 0.000000e+00 0.000000e+00
1
Step 195000
Ar 9.872117e-01 0.000000e+00 0.000000e+00
1
Step 196000
Ar 1.000279e+00 0.000000e+00 0.000000e+00
1
Step 197000
Ar 9.629408e-01 0.000000e+00 0.000000e+00
1
Step 198000
Ar 9.406294e-01 0.000000e+00 0.000000e+00
1
Step 199000
Ar 9.842380e-01 0.000000e+00 0.000000e+00
1
Step 200000
Ar 1.088485e+00 0.000000e+00 0.000000e+00
1
Step 201000
Ar 1.092693e+00 0.000000e+00 0.000000e+00
1
Step 202000
Ar 8.573879e-01 0.000000e+00 0.000000e+00
1
Step 203000
Ar 9.805498e-01 0.000000e+00 0.000000e+00
1
Step 204000
Ar 1.053790e+00 0.000000e+00 0.000000e+00
1
Step 205000
Ar 8.536794e-01 0.000000e+00 0.000000e+00
1
Step 206000
Ar 8.479987e-01 0.000000e+00 0.000000e+00
1
Step 207000
Ar 8.552777e-01 0.000000e+00 0.000000e+00
1
Step 208000
Ar 9.316395e-01 0.000000e+00 0.000000e+00
1
Step 209000
Ar 9.422251e-01 0.000000e+00 0.000000e+00
1
Step 210000
Ar 9.272288e-01 0.000000e+00 0.000000e+00
1
Step 211000
Ar 9.588666e-01 0.000000e+00 0.000000e+00
1
Step 212000
Ar 9.333600e-01 0.000000e+00 0.000000e+00
1
Step 213000
Ar 9.327428e-01 0.000000e+00 0.000000e+00
1
Step 214000
Ar 9.387016e-01 0.000000e+00 0.000000e+00
1
Step 215000
Ar 9.421360e-01 0.000000e+00 0.000000e+00
1
Step 216000
Ar 9.256504e-01 0.000000e+00 0.000000e+00
1
Step 217000
Ar 8.797282e-01 0.000000e+00 0.000000e+00
1
Step 218000
Ar 9.623280e-01 0.000000e+00 0.000000e+00
1
Step 219000
Ar 9.559497e-01 0.000000e+00 0.000000e+00
1
Step 220000
Ar 8.421388e-01 0.000000e+00 0.000000e+00
1
Step 221000
Ar 9.041668e-01 0.000000e+00 0.000000e+00
1
Step 222000
Ar 1.052246e+00 0.000000e+00 0.000000e+00
1
Step 223000
Ar 1.051985e+00 0.000000e+00 0.000000e+00
1
Step 224000
Ar 1.064753e+00 0.000000e+00 0.000000e+00
1
Step 225000
Ar 9.636596e-01 0.000000e+00 0.000000e+00
1
Step 226000
Ar 9.876507e-01 0.000000e+00 0.000000e+00
1
Step 227000
Ar 9.803136e-01 0.000000e+00 0.000000e+00
1
Step 228000
Ar 1.002595e+00 0.000000e+00 0.000000e+00
1
Step 229000
Ar 9.769365e-01 0.000000e+00 0.000000e+00
1
Step 230000
Ar 1.002231e+00 0.000000e+00 0.000000e+00
1
Step 231000
Ar 1.004248e+00 0.000000e+00 0.000000e+00
1
Step 232000
Ar 9.849618e-01 0.000000e+00 0.000000e+00
1
Step 233000
Ar 1.000202e+00 0.000000e+00 0.000000e+00
1
Step 234000
Ar 7.313633e-01 0.000000e+00 0.000000e+00
1
Step 235000
Ar 7.655460e-01 0.000000e+00 0.000000e+00
1
Step 236000
Ar 7.259243e-01 0.000000e+00 0.000000e+00
1
Step 237000
Ar 7.306057e-01 0.000000e+00 0.000000e+00
1
Step 238000
Ar 7.232878e-01 0.000000e+00 0.000000e+00
1
Step 239000
Ar 7.585026e-01 0.000000e+00 0.000000e+00
1
Step 240000
Ar 7.470234e-01 0.000000e+00 0.000000e+00
1
Step 241000
Ar 7.340178e-01 0.000000e+00 0.000000e+00
1
Step 242000
Ar 7.708507e-01 0.000000e+00 0.000000e+00
1
Step 243000
Ar 7.689763e-01 0.000000e+00 0.000000e+00
1
Step 244000
Ar 7.472557e-01 0.000000e+00 0.000000e+00
1
Step 245000
Ar 7.754677e-01 0.000000e+00 0.000000e+00
1
Step 246000
Ar 7.462807e-01 0.000000e+00 0.000000e+00
1
Step 247000
Ar 7.233208e-01 0.000000e+00 0.000000e+00
1
Step 248000
Ar 7.204983e-01 0.000000e+00 0.000000e+00
1
Step 249000
Ar 7.982770e-01 0.000000e+00 0.000000e+00
1
Step 250000
Ar 7.985737e-01 0.000000e+00 0.000000e+00
1
Step 251000
Ar 1.249655e+00 0.000000e+00 0.000000e+00
1
Step 252000
Ar 1.221294e+00 0.000000e+00 0.000000e+00
1
Step 253000
Ar 1.162257e+00 0.000000e+00 0.000000e+00
1
Step 254000
Ar 1.183684e+00 0.000000e+00 0.000000e+00
1
Step 255000
Ar 1.162867e+00 0.000000e+00 0.000000e+00
1
Step 256000
Ar 1.173830e+00 0.000000e+00 0.000000e+00
1
Step 257000
Ar 1.229473e+00 0.000000e+00 0.000000e+00
1
Step 258000
Ar 1.160987e+00 0.000000e+00 0.000000e+00
1
Step 259000
Ar 9.056124e-01 0.000000e+00 0.000000e+00
1
Step 260000
Ar 9.028918e-01 0.000000e+00 0.000000e+00
1
Step 261000
Ar 1.057265e+00 0.000000e+00 0.000000e+00
1
Step 262000
Ar 1.007034e+00 0.000000e+00 0.000000e+00
1
Step 263000
Ar 9.804212e-01 0.000000e+00 0.000000e+00
1
Step 264000
Ar 9.150856e-01 0.000000e+00 0.000000e+00
1
Step 265000
Ar 6.798886e-01 0.000000e+00 0.000000e+00
1
Step 266000
Ar 6.804113e-01 0.000000e+00 0.000000e+00
1
Step 267000
Ar 6.749070e-01 0.000000e+00 0.000000e+00
1
Step 268000
Ar 6.799341e-01 0.000000e+00 0.000000e+00
1
Step 269000
Ar 6.882609e-01 0.000000e+00 0.000000e+00
1
Step 270000
Ar 6.944212e-01 0.000000e+00 0.000000e+00
1
Step 271000
Ar 7.520792e-01 0.000000e+00 0.000000e+00
1
Step 272000
Ar 7.242189e-01 0.000000e+00 0.000000e+00
1
Step 273000
Ar 7.552441e-01 0.000000e+00 0.000000e+00
1
Step 274000
Ar 7.521416e-01 0.000000e+00 0.000000e+00
1
Step 275000
Ar 7.335773e-01 0.000000e+00 0.000000e+00
1
Step 276000
Ar 7.293847e-01 0.000000e+00 0.000000e+00
1
Step 277000
Ar 7.461606e-01 0.000000e+00 0.000000e+00
1
Step 278000
Ar 7.251973e-01 0.000000e+00 0.000000e+00
1
Step 279000
Ar 7.543898e-01 0.000000e+00 0.000000e+00
1
Step 280000
Ar 7.501506e-01 0.000000e+00 0.000000e+00
1
Step 281000
Ar 7.526636e-01 0.000000e+00 0.000000e+00
1
Step 282000
Ar 7.349285e-01 0.000000e+00 0.000000e+00
1
Step 283000
Ar 7.345300e-01 0.000000e+00 0.000000e+00
1
Step 284000
Ar 7.309166e-01 0.000000e+00 0.000000e+00
1
Step 285000
Ar 7.218871e-01 0.000000e+00 0.000000e+00
1
Step 286000
Ar 7.997760e-01 0.000000e+00 0.000000e+00
1
Step 287000
Ar 7.519330e-01 0.000000e+00 0.000000e+00
1
Step 288000
Ar 7.551628e-01 0.000000e+00 0.000000e+00
1
Step 289000
Ar 7.773835e-01 0.000000e+00 0.000000e+00
1
Step 290000
Ar 7.610983e-01 0.000000e+00 0.000000e+00
1
Step 291000
Ar 7.574821e-01 0.000000e+00 0.000000e+00
1
Step 292000
Ar 7.811740e-01 0.000000e+00 0.000000e+00
1
Step 293000
Ar 6.506382e-01 0.000000e+00 0.000000e+00
1
Step 294000
Ar 6.481071e-01 0.000000e+00 0.000000e+00
1
Step 295000
Ar 6.913590e-01 0.000000e+00 0.000000e+00
1
Step 296000
Ar 6.879001e-01 0.000000e+00 0.000000e+00
1
Step 297000
Ar 6.908592e-01 0.000000e+00 0.000000e+00
1
Step 298000
Ar 6.919634e-01 0.000000e+00 0.000000e+00
1
Step 299000
Ar 6.919995e-01 0.000000e+00 0.000000e+00
1
Step 300000
Ar 7.383963e-01 0.000000e+00 0.000000e+00
1
Step 301000
Ar 6.545380e-01 0.000000e+00 0.000000e+00
1
Step 302000
Ar 6.596200e-01 0.000000e+00 0.000000e+00
1
Step 303000
Ar 9.604285e-01 0.000000e+00 0.000000e+00
1
Step 304000
Ar 1.084572e+00 0.000000e+00 0.000000e+00
1
Step 305000
Ar 1.051786e+00 0.000000e+00 0.000000e+00
1
Step 306000
Ar 1.050083e+00 0.000000e+00 0.000000e+00
1
Step 307000
Ar 1.001648e+00 0.000000e+00 0.000000e+00
1
Step 308000
Ar 1.004550e+00 0.000000e+00 0.000000e+00
1
Step 309000
Ar 9.871295e-01 0.000000e+00 0.000000e+00
1
Step 310000
Ar 9.411233e-01 0.000000e+00 0.000000e+00
1
Step 311000
Ar 9.247242e-01 0.000000e+00 0.000000e+00
1
Step 312000
Ar 9.398368e-01 0.000000e+00 0.000000e+00
1
Step 313000
Ar 9.395555e-01 0.000000e+00 0.000000e+00
1
Step 314000
Ar 8.934271e-01 0.000000e+00 0.000000e+00
1
Step 315000
Ar 8.966439e-01 0.000000e+00 0.000000e+00
1
Step 316000
Ar 9.341326e-01 0.000000e+00 0.000000e+00
1
Step 317000
Ar 8.735129e-01 0.000000e+00 0.000000e+00
1
Step 318000
Ar 8.627823e-01 0.000000e+00 0.000000e+00
1
Step 319000
Ar 8.792962e-01 0.000000e+00 0.000000e+00
1
Step 320000
Ar 8.824974e-01 0.000000e+00 0.000000e+00
1
Step 321000
Ar 8.934569e-01 0.000000e+00 0.000000e+00
1
Step 322000
Ar 8.967221e-01 0.000000e+00 0.000000e+00
1
Step 323000
Ar 8.980783e-01 0.000000e+00 0.000000e+00
1
Step 324000
Ar 8.945438e-01 0.000000e+00 0.000000e+00
1
Step 325000
Ar 9.008508e-01 0.000000e+00 0.000000e+00
1
Step 326000
Ar 9.272428e-01 0.000000e+00 0.000000e+00
1
Step 327000
Ar 8.940964e-01 0.000000e+00 0.000000e+00
1
Step 328000
Ar 9.276004e-01 0.000000e+00 0.000000e+00
1
Step 329000
Ar 9.405548e-01 0.000000e+00 0.000000e+00
1
Step 330000
Ar 8.971651e-01 0.000000e+00 0.000000e+00
1
Step 331000
Ar 7.809206e-01 0.000000e+00 0.000000e+00
1
Step 332000
Ar 7.664329e-01 0.000000e+00 0.000000e+00
1
Step 333000
Ar 7.459615e-01 0.000000e+00 0.000000e+00
1
Step 334000
Ar 7.900989e-01 0.000000e+00 0.000000e+00
1
Step 335000
Ar 7.393469e-01 0.000000e+00 0.000000e+00
1
Step 336000
Ar 7.389109e-01 0.000000e+00 0.000000e+00
1
Step 337000
Ar 6.489942e-01 0.000000e+00 0.000000e+00
1
Step 338000
Ar 6.544025e-01 0.000000e+00 0.000000e+00
1
Step 339000
Ar 6.478087e-01 0.000000e+00 0.000000e+00
1
Step 340000
Ar 6.732125e-01 0.000000e+00 0.000000e+00
1
Step 341000
Ar 7.544315e-01 0.000000e+00 0.000000e+00
1
Step 342000
Ar 7.413167e-01 0.000000e+00 0.000000e+00
1
Step 343000
Ar 7.412922e-01 0.000000e+00 0.000000e+00
1
Step 344000
Ar 7.450987e-01 0.000000e+00 0.000000e+00
1
Step 345000
Ar 7.538618e-01 0.000000e+00 0.000000e+00
1
Step 346000
Ar 4.508328e-01 0.000000e+00 0.000000e+00
1
Step 347000
Ar 5.589453e-01 0.000000e+00 0.000000e+00
1
Step 348000
Ar 6.833075e-01 0.000000e+00 0.000000e+00
1
Step 349000
Ar 5.696126e-01 0.000000e+00 0.000000e+00
1
Step 350000
Ar 5.500553e-01 0.000000e+00 0.000000e+00
1
Step 351000
Ar 5.264330e-01 0.000000e+00 0.000000e+00
1
Step 352000
Ar 6.058281e-01 0.000000e+00 0.000000e+00
1
Step 353000
Ar 6.091323e-01 0.000000e+00 0.000000e+00
1
Step 354000
Ar 6.085998e-01 0.000000e+00 0.000000e+00
1
Step 355000
Ar 5.743097e-01 0.000000e+00 0.000000e+00
1
Step 356000
Ar 5.395609e-01 0.000000e+00 0.000000e+00
1
Step 357000
Ar 5.544902e-01 0.000000e+00 0.000000e+00
1
Step 358000
Ar 5.376865e-01 0.000000e+00 0.000000e+00
1
Step 359000
Ar 5.117756e-01 0.000000e+00 0.000000e+00
1
Step 360000
Ar 5.779549e-01 0.000000e+00 0.000000e+00
1
Step 361000
Ar 4.378623e-01 0.000000e+00 0.000000e+00
1
Step 362000
Ar 2.046114e-01 0.000000e+00 0.000000e+00
1
Step 363000
Ar 4.600935e-01 0.000000e+00 0.000000e+00
1
Step 364000
Ar 3.009492e-01 0.000000e+00 0.000000e+00
1
Step 365000
Ar 3.392375e-01 0.000000e+00 0.000000e+00
1
Step 366000
Ar 4.704836e-01 0.000000e+00 0.000000e+00
1
Step 367000
Ar 4.040340e-01 0.000000e+00 0.000000e+00
1
Step 368000
Ar -3.886262e-01 0.000000e+00 0.000000e+00
1
Step 369000
Ar -1.018201e+00 0.000000e+00 0.000000e+00
1
Step 370000
Ar -7.990688e-01 0.000000e+00 0.000000e+00
1
Step 371000
Ar -1.015449e+00 0.000000e+00 0.000000e+00
1
Step 372000
Ar -9.747377e-01 0.000000e+00 0.000000e+00
1
Step 373000
Ar -8.787792e-01 0.000000e+00 0.000000e+00
1
Step 374000
Ar -1.152842e+00 0.000000e+00 0.000000e+00
1
Step 375000
Ar -8.759734e-01 0.000000e+00 0.000000e+00
1
Step 376000
Ar -7.253006e-01 0.000000e+00 0.000000e+00
1
Step 377000
Ar -8.521957e-01 0.000000e+00 0.000000e+00
1
Step 378000
Ar -9.204622e-01 0.000000e+00 0.000000e+00
1
Step 379000
Ar -1.032598e+00 0.000000e+00 0.000000e+00
1
Step 380000
Ar -9.373115e-01 0.000000e+00 0.000000e+00
1
Step 381000
Ar -9.189922e-01 0.000000e+00 0.000000e+00
1
Step 382000
Ar -1.217585e+00 0.000000e+00 0.000000e+00
1
Step 383000
Ar -1.253274e+00 0.000000e+00 0.000000e+00
1
Step 384000
Ar -1.343462e+00 0.000000e+00 0.000000e+00
1
Step 385000
Ar -9.174699e-01 0.000000e+00 0.000000e+00
1
Step 386000
Ar -9.345784e-01 0.000000e+00 0.000000e+00
1
Step 387000
Ar -7.733594e-01 0.000000e+00 0.000000e+00
1
Step 388000
Ar -9.119590e-01 0.000000e+00 0.000000e+00
1
Step 389000
Ar -1.018444e+00 0.000000e+00 0.000000e+00
1
Step 390000
Ar -8.874435e-01 0.000000e+00 0.000000e+00
1
Step 391000
Ar -1.004677e+00 0.000000e+00 0.000000e+00
1
Step 392000
Ar -9.679694e-01 0.000000e+00 0.000000e+00
1
Step 393000
Ar -9.831203e-01 0.000000e+00 0.000000e+00
1
Step 394000
Ar -9.997648e-01 0.000000e+00 0.000000e+00
1
Step 395000
Ar -1.100563e+00 0.000000e+00 0.000000e+00
1
Step 396000
Ar -1.057672e+00 0.000000e+00 0.000000e+00
1
Step 397000
Ar -1.106106e+00 0.000000e+00 0.000000e+00
1
Step 398000
Ar -1.063863e+00 0.000000e+00 0.000000e+00
1
Step 399000
Ar -1.053123e+00 0.000000e+00 0.000000e+00
1
Step 400000
Ar -1.058909e+00 0.000000e+00 0.000000e+00
1
Step 401000
Ar -1.133131e+00 0.000000e+00 0.000000e+00
1
Step 402000
Ar -1.105396e+00 0.000000e+00 0.000000e+00
1
Step 403000
Ar -1.106664e+00 0.000000e+00 0.000000e+00
1
Step 404000
Ar -1.050067e+00 0.000000e+00 0.000000e+00
1
Step 405000
Ar -1.050261e+00 0.000000e+00 0.000000e+00
1
Step 406000
Ar -1.012954e+00 0.000000e+00 0.000000e+00
1
Step 407000
Ar -1.004851e+00 0.000000e+00 0.000000e+00
1
Step 408000
Ar -9.729804e-01 0.000000e+00 0.000000e+00
1
Step 409000
Ar -9.748536e-01 0.000000e+00 0.000000e+00
1
Step 410000
Ar -9.722564e-01 0.000000e+00 0.000000e+00
1
Step 411000
Ar -9.882993e-01 0.000000e+00 0.000000e+00
1
Step 412000
Ar -1.016631e+00 0.000000e+00 0.000000e+00
1
Step 413000
Ar -8.353231e-01 0.000000e+00 0.000000e+00
1
Step 414000
Ar -8.275928e-01 0.000000e+00 0.000000e+00
1
Step 415000
Ar -9.022068e-01 0.000000e+00 0.000000e+00
1
Step 416000
Ar -8.382152e-01 0.000000e+00 0.000000e+00
1
Step 417000
Ar -8.519259e-01 0.000000e+00 0.000000e+00
1
Step 418000
Ar -8.655880e-01 0.000000e+00 0.000000e+00
1
Step 419000
Ar -7.859723e-01 0.000000e+00 0.000000e+00
1
Step 420000
Ar -7.406786e-01 0.000000e+00 0.000000e+00
1
Step 421000
Ar -7.782554e-01 0.000000e+00 0.000000e+00
1
Step 422000
Ar -7.041594e-01 0.000000e+00 0.000000e+00
1
Step 423000
Ar -8.371136e-01 0.000000e+00 0.000000e+00
1
Step 424000
Ar -6.080654e-01 0.000000e+00 0.000000e+00
1
Step 425000
Ar -6.859223e-01 0.000000e+00 0.000000e+00
1
Step 426000
Ar -6.574209e-01 0.000000e+00 0.000000e+00
1
Step 427000
Ar -6.921619e-01 0.000000e+00 0.000000e+00
1
Step 428000
Ar -6.201399e-01 0.000000e+00 0.000000e+00
1
Step 429000
Ar -7.996819e-01 0.000000e+00 0.000000e+00
1
Step 430000
Ar -8.405265e-01 0.000000e+00 0.000000e+00
1
Step 431000
Ar -8.227511e-01 0.000000e+00 0.000000e+00
1
Step 432000
Ar -7.553215e-01 0.000000e+00 0.000000e+00
1
Step 433000
Ar -7.700857e-01 0.000000e+00 0.000000e+00
1
Step 434000
Ar -7.568703e-01 0.000000e+00 0.000000e+00
1
Step 435000
Ar -7.931764e-01 0.000000e+00 0.000000e+00
1
Step 436000
Ar -7.626527e-01 0.000000e+00 0.000000e+00
1
Step 437000
Ar -7.799132e-01 0.000000e+00 0.000000e+00
1
Step 438000
Ar -7.992803e-01 0.000000e+00 0.000000e+00
1
Step 439000
Ar -7.746326e-01 0.000000e+00 0.000000e+00
1
Step 440000
Ar -7.397035e-01 0.000000e+00 0.000000e+00
1
Step 441000
Ar -7.712995e-01 0.000000e+00 0.000000e+00
1
Step 442000
Ar -7.438189e-01 0.000000e+00 0.000000e+00
1
Step 443000
Ar -8.506313e-01 0.000000e+00 0.000000e+00
1
Step 444000
Ar -9.736649e-01 0.000000e+00 0.000000e+00
1
Step 445000
Ar -9.985614e-01 0.000000e+00 0.000000e+00
1
Step 446000
Ar -9.206781e-01 0.000000e+00 0.000000e+00
1
Step 447000
Ar -8.998800e-01 0.000000e+00 0.000000e+00
1
Step 448000
Ar -1.182599e+00 0.000000e+00 0.000000e+00
1
Step 449000
Ar -1.194045e+00 0.000000e+00 0.000000e+00
1
Step 450000
Ar -1.233273e+00 0.000000e+00 0.000000e+00
1
Step 451000
Ar -1.233219e+00 0.000000e+00 0.000000e+00
1
Step 452000
Ar -1.210580e+00 0.000000e+00 0.000000e+00
1
Step 453000
Ar -1.205610e+00 0.000000e+00 0.000000e+00
1
Step 454000
Ar -1.112286e+00 0.000000e+00 0.000000e+00
1
Step 455000
Ar -1.167396e+00 0.000000e+00 0.000000e+00
1
Step 456000
Ar -1.158979e+00 0.000000e+00 0.000000e+00
1
Step 457000
Ar -1.154401e+00 0.000000e+00 0.000000e+00
1
Step 458000
Ar -1.234572e+00 0.000000e+00 0.000000e+00
1
Step 459000
Ar -1.249447e+00 0.000000e+00 0.000000e+00
1
Step 460000
Ar -1.254625e+00 0.000000e+00 0.000000e+00
1
Step 461000
Ar -1.247226e+00 0.000000e+00 0.000000e+00
1
Step 462000
Ar -1.241847e+00 0.000000e+00 0.000000e+00
1
Step 463000
Ar -1.244996e+00 0.000000e+00 0.000000e+00
1
Step 464000
Ar -1.245826e+00 0.000000e+00 0.000000e+00
1
Step 465000
Ar -1.257830e+00 0.000000e+00 0.000000e+00
1
Step 466000
Ar -9.189863e-01 0.000000e+00 0.000000e+00
1
Step 467000
Ar -9.493357e-01 0.000000e+00 0.000000e+00
1
Step 468000
Ar -8.736182e-01 0.000000e+00 0.000000e+00
1
Step 469000
Ar -7.397588e-01 0.000000e+00 0.000000e+00
1
Step 470000
Ar -7.570352e-01 0.000000e+00 0.000000e+00
1
Step 471000
Ar -7.701082e-01 0.000000e+00 0.000000e+00
1
Step 472000
Ar -8.271875e-01 0.000000e+00 0.000000e+00
1
Step 473000
Ar -7.669016e-01 0.000000e+00 0.000000e+00
1
Step 474000
Ar -7.329955e-01 0.000000e+00 0.000000e+00
1
Step 475000
Ar -7.449471e-01 0.000000e+00 0.000000e+00
1
Step 476000
Ar -7.368532e-01 0.000000e+00 0.000000e+00
1
Step 477000
Ar -8.883592e-01 0.000000e+00 0.000000e+00
1
Step 478000
Ar -8.680346e-01 0.000000e+00 0.000000e+00
1
Step 479000
Ar -8.701410e-01 0.000000e+00 0.000000e+00
1
Step 480000
Ar -8.342559e-01 0.000000e+00 0.000000e+00
1
Step 481000
Ar -8.098896e-01 0.000000e+00 0.000000e+00
1
Step 482000
Ar -8.036296e-01 0.000000e+00 0.000000e+00
1
Step 483000
Ar -8.019168e-01 0.000000e+00 0.000000e+00
1
Step 484000
Ar -7.772413e-01 0.000000e+00 0.000000e+00
1
Step 485000
Ar -7.801708e-01 0.000000e+00 0.000000e+00
1
Step 486000
Ar -7.660494e-01 0.000000e+00 0.000000e+00
1
Step 487000
Ar -7.635897e-01 0.000000e+00 0.000000e+00
1
Step 488000
Ar -7.424770e-01 0.000000e+00 0.000000e+00
1
Step 489000
Ar -7.434964e-01 0.000000e+00 0.000000e+00
1
Step 490000
Ar -7.410845e-01 0.000000e+00 0.000000e+00
1
Step 491000
Ar -7.361519e-01 0.000000e+00 0.000000e+00
1
Step 492000
Ar -5.399022e-01 0.000000e+00 0.000000e+00
1
Step 493000
Ar -1.056730e+00 0.000000e+00 0.000000e+00
1
Step 494000
Ar -9.769259e-01 0.000000e+00 0.000000e+00
1
Step 495000
Ar -9.823353e-01 0.000000e+00 0.000000e+00
1
Step 496000
Ar -9.982769e-01 0.000000e+00 0.000000e+00
1
Step 497000
Ar -9.933619e-01 0.000000e+00 0.000000e+00
1
Step 498000
Ar -9.932547e-01 0.000000e+00 0.000000e+00
1
Step 499000
Ar -9.920668e-01 0.000000e+00 0.000000e+00
1
Step 500000
Ar -9.315813e-01 0.000000e+00 0.000000e+00
1
Step 501000
Ar -1.058001e+00 0.000000e+00 0.000000e+00
1
Step 502000
Ar -1.054644e+00 0.000000e+00 0.000000e+00
1
Step 503000
Ar -1.075598e+00 0.000000e+00 0.000000e+00
1
Step 504000
Ar -1.062190e+00 0.000000e+00 0.000000e+00
1
Step 505000
Ar -1.052748e+00 0.000000e+00 0.000000e+00
1
Step 506000
Ar -9.230985e-01 0.000000e+00 0.000000e+00
1
Step 507000
Ar -9.881885e-01 0.000000e+00 0.000000e+00
1
Step 508000
Ar -9.803356e-01 0.000000e+00 0.000000e+00
1
Step 509000
Ar -9.951543e-01 0.000000e+00 0.000000e+00
1
Step 510000
Ar -9.780076e-01 0.000000e+00 0.000000e+00
1
Step 511000
Ar -9.883395e-01 0.000000e+00 0.000000e+00
1
Step 512000
Ar -9.808797e-01 0.000000e+00 0.000000e+00
1
Step 513000
Ar -9.947907e-01 0.000000e+00 0.000000e+00
1
Step 514000
Ar -9.757420e-01 0.000000e+00 0.000000e+00
1
Step 515000
Ar -1.000821e+00 0.000000e+00 0.000000e+00
1
Step 516000
Ar -9.825874e-01 0.000000e+00 0.000000e+00
1
Step 517000
Ar -9.891968e-01 0.000000e+00 0.000000e+00
1
Step 518000
Ar -9.922136e-01 0.000000e+00 0.000000e+00
1
Step 519000
Ar -9.884103e-01 0.000000e+00 0.000000e+00
1
Step 520000
Ar -9.907953e-01 0.000000e+00 0.000000e+00
1
Step 521000
Ar -9.893401e-01 0.000000e+00 0.000000e+00
1
Step 522000
Ar -9.959602e-01 0.000000e+00 0.000000e+00
1
Step 523000
Ar -9.962190e-01 0.000000e+00 0.000000e+00
1
Step 524000
Ar -9.977609e-01 0.000000e+00 0.000000e+00
1
Step 525000
Ar -9.907495e-01 0.000000e+00 0.000000e+00
1
Step 526000
Ar -9.890541e-01 0.000000e+00 0.000000e+00
1
Step 527000
Ar -9.284540e-01 0.000000e+00 0.000000e+00
1
Step 528000
Ar -9.364672e-01 0.000000e+00 0.000000e+00
1
Step 529000
Ar -1.166742e+00 0.000000e+00 0.000000e+00
1
Step 530000
Ar -9.957650e-01 0.000000e+00 0.000000e+00
1
Step 531000
Ar -1.024643e+00 0.000000e+00 0.000000e+00
1
Step 532000
Ar -1.023146e+00 0.000000e+00 0.000000e+00
1
Step 533000
Ar -1.211069e+00 0.000000e+00 0.000000e+00
1
Step 534000
Ar -1.198985e+00 0.000000e+00 0.000000e+00
1
Step 535000
Ar -1.163066e+00 0.000000e+00 0.000000e+00
1
Step 536000
Ar -1.155592e+00 0.000000e+00 0.000000e+00
1
Step 537000
Ar -1.167273e+00 0.000000e+00 0.000000e+00
1
Step 538000
Ar -1.168104e+00 0.000000e+00 0.000000e+00
1
Step 539000
Ar -1.159487e+00 0.000000e+00 0.000000e+00
1
Step 540000
Ar -1.166358e+00 0.000000e+00 0.000000e+00
1
Step 541000
Ar -1.168917e+00 0.000000e+00 0.000000e+00
1
Step 542000
Ar -1.156087e+00 0.000000e+00 0.000000e+00
1
Step 543000
Ar -1.192565e+00 0.000000e+00 0.000000e+00
1
Step 544000
Ar -1.204752e+00 0.000000e+00 0.000000e+00
1
Step 545000
Ar -1.195940e+00 0.000000e+00 0.000000e+00
1
Step 546000
Ar -1.203969e+00 0.000000e+00 0.000000e+00
1
Step 547000
Ar -1.209465e+00 0.000000e+00 0.000000e+00
1
Step 548000
Ar -1.056500e+00 0.000000e+00 0.000000e+00
1
Step 549000
Ar -1.127979e+00 0.000000e+00 0.000000e+00
1
Step 550000
Ar -1.131460e+00 0.000000e+00 0.000000e+00
1
Step 551000
Ar -1.135020e+00 0.000000e+00 0.000000e+00
1
Step 552000
Ar -1.163060e+00 0.000000e+00 0.000000e+00
1
Step 553000
Ar -1.189216e+00 0.000000e+00 0.000000e+00
1
Step 554000
Ar -1.200729e+00 0.000000e+00 0.000000e+00
1
Step 555000
Ar -1.192431e+00 0.000000e+00 0.000000e+00
1
Step 556000
Ar -1.307307e+00 0.000000e+00 0.000000e+00
1
Step 557000
Ar -1.198439e+00 0.000000e+00 0.000000e+00
1
Step 558000
Ar -1.213228e+00 0.000000e+00 0.000000e+00
1
Step 559000
Ar -1.216781e+00 0.000000e+00 0.000000e+00
1
Step 560000
Ar -1.213771e+00 0.000000e+00 0.000000e+00
1
Step 561000
Ar -1.382262e+00 0.000000e+00 0.000000e+00
1
Step 562000
Ar -1.346747e+00 0.000000e+00 0.000000e+00
1
Step 563000
Ar -1.313813e+00 0.000000e+00 0.000000e+00
1
Step 564000
Ar -1.308206e+00 0.000000e+00 0.000000e+00
1
Step 565000
Ar -1.357334e+00 0.000000e+00 0.000000e+00
1
Step 566000
Ar -1.077023e+00 0.000000e+00 0.000000e+00
1
Step 567000
Ar -1.078104e+00 0.000000e+00 0.000000e+00
1
Step 568000
Ar -1.074014e+00 0.000000e+00 0.000000e+00
1
Step 569000
Ar -1.064916e+00 0.000000e+00 0.000000e+00
1
Step 570000
Ar -1.063218e+00 0.000000e+00 0.000000e+00
1
Step 571000
Ar -1.133290e+00 0.000000e+00 0.000000e+00
1
Step 572000
Ar -1.047959e+00 0.000000e+00 0.000000e+00
1
Step 573000
Ar -1.019491e+00 0.000000e+00 0.000000e+00
1
Step 574000
Ar -1.027644e+00 0.000000e+00 0.000000e+00
1
Step 575000
Ar -1.076452e+00 0.000000e+00 0.000000e+00
1
Step 576000
Ar -1.053122e+00 0.000000e+00 0.000000e+00
1
Step 577000
Ar -1.060502e+00 0.000000e+00 0.000000e+00
1
Step 578000
Ar -1.060931e+00 0.000000e+00 0.000000e+00
1
Step 579000
Ar -1.079214e+00 0.000000e+00 0.000000e+00
1
Step 580000
Ar -1.053778e+00 0.000000e+00 0.000000e+00
1
Step 581000
Ar -1.081038e+00 0.000000e+00 0.000000e+00
1
Step 582000
Ar -1.073792e+00 0.000000e+00 0.000000e+00
1
Step 583000
Ar -1.075796e+00 0.000000e+00 0.000000e+00
1
Step 584000
Ar -1.060553e+00 0.000000e+00 0.000000e+00
1
Step 585000
Ar -1.062198e+00 0.000000e+00 0.000000e+00
1
Step 586000
Ar -1.130074e+00 0.000000e+00 0.000000e+00
1
Step 587000
Ar -1.033245e+00 0.000000e+00 0.000000e+00
1
Step 588000
Ar -1.013645e+00 0.000000e+00 0.000000e+00
1
Step 589000
Ar -1.091692e+00 0.000000e+00 0.000000e+00
1
Step 590000
Ar -1.062514e+00 0.000000e+00 0.000000e+00
1
Step 591000
Ar -1.060120e+00 0.000000e+00 0.000000e+00
1
Step 592000
Ar -1.078637e+00 0.000000e+00 0.000000e+00
1
Step 593000
Ar -1.074903e+00 0.000000e+00 0.000000e+00
1
Step 594000
Ar -1.159050e+00 0.000000e+00 0.000000e+00
1
Step 595000
Ar -1.084340e+00 0.000000e+00 0.000000e+00
1
Step 596000
Ar -1.082115e+00 0.000000e+00 0.000000e+00
1
Step 597000
Ar -6.867649e-01 0.000000e+00 0.000000e+00
1
Step 598000
Ar -6.900589e-01 0.000000e+00 0.000000e+00
1
Step 599000
Ar -6.900298e-01 0.000000e+00 0.000000e+00
1
Step 600000
Ar -7.089828e-01 0.000000e+00 0.000000e+00
1
Step 601000
Ar -7.003776e-01 0.000000e+00 0.000000e+00
1
Step 602000
Ar -7.328095e-01 0.000000e+00 0.000000e+00
1
Step 603000
Ar -7.447770e-01 0.000000e+00 0.000000e+00
1
Step 604000
Ar -7.100022e-01 0.000000e+00 0.000000e+00
1
Step 605000
Ar -7.104794e-01 0.000000e+00 0.000000e+00
1
Step 606000
Ar -6.322181e-01 0.000000e+00 0.000000e+00
1
Step 607000
Ar -6.022657e-01 0.000000e+00 0.000000e+00
1
Step 608000
Ar -5.662173e-01 0.000000e+00 0.000000e+00
1
Step 609000
Ar -5.747490e-01 0.000000e+00 0.000000e+00
1
Step 610000
Ar -7.427027e-01 0.000000e+00 0.000000e+00
1
Step 611000
Ar -7.143283e-01 0.000000e+00 0.000000e+00
1
Step 612000
Ar -6.145645e-01 0.000000e+00 0.000000e+00
1
Step 613000
Ar -6.832807e-01 0.000000e+00 0.000000e+00
1
Step 614000
Ar -6.874318e-01 0.000000e+00 0.000000e+00
1
Step 615000
Ar -6.782932e-01 0.000000e+00 0.000000e+00
1
Step 616000
Ar -6.847217e-01 0.000000e+00 0.000000e+00
1
Step 617000
Ar -7.298034e-01 0.000000e+00 0.000000e+00
1
Step 618000
Ar -7.421792e-01 0.000000e+00 0.000000e+00
1
Step 619000
Ar -7.161610e-01 0.000000e+00 0.000000e+00
1
Step 620000
Ar -7.362288e-01 0.000000e+00 0.000000e+00
1
Step 621000
Ar -8.005782e-01 0.000000e+00 0.000000e+00
1
Step 622000
Ar -7.999529e-01 0.000000e+00 0.000000e+00
1
Step 623000
Ar -8.060880e-01 0.000000e+00 0.000000e+00
1
Step 624000
Ar -7.998862e-01 0.000000e+00 0.000000e+00
1
Step 625000
Ar -8.346789e-01 0.000000e+00 0.000000e+00
1
Step 626000
Ar -9.180351e-01 0.000000e+00 0.000000e+00
1
Step 627000
Ar -9.309675e-01 0.000000e+00 0.000000e+00
1
Step 628000
Ar -9.281698e-01 0.000000e+00 0.000000e+00
1
Step 629000
Ar -9.171920e-01 0.000000e+00 0.000000e+00
1
Step 630000
Ar -7.761445e-01 0.000000e+00 0.000000e+00
1
Step 631000
Ar -7.766119e-01 0.000000e+00 0.000000e+00
1
Step 632000
Ar -7.744293e-01 0.000000e+00 0.000000e+00
1
Step 633000
Ar -7.803322e-01 0.000000e+00 0.000000e+00
1
Step 634000
Ar -7.807337e-01 0.000000e+00 0.000000e+00
1
Step 635000
Ar -8.442654e-01 0.000000e+00 0.000000e+00
1
Step 636000
Ar -7.809984e-01 0.000000e+00 0.000000e+00
1
Step 637000
Ar -8.920378e-01 0.000000e+00 0.000000e+00
1
Step 638000
Ar -8.655054e-01 0.000000e+00 0.000000e+00
1
Step 639000
Ar -8.340924e-01 0.000000e+00 0.000000e+00
1
Step 640000
Ar -8.638037e-01 0.000000e+00 0.000000e+00
1
Step 641000
Ar -9.112276e-01 0.000000e+00 0.000000e+00
1
Step 642000
Ar -9.296602e-01 0.000000e+00 0.000000e+00
1
Step 643000
Ar -9.920859e-01 0.000000e+00 0.000000e+00
1
Step 644000
Ar -1.057396e+00 0.000000e+00 0.000000e+00
1
Step 645000
Ar -1.075206e+00 0.000000e+00 0.000000e+00
1
Step 646000
Ar -1.137771e+00 0.000000e+00 0.000000e+00
1
Step 647000
Ar -1.058387e+00 0.000000e+00 0.000000e+00
1
Step 648000
Ar -1.083840e+00 0.000000e+00 0.000000e+00
1
Step 649000
Ar -1.070705e+00 0.000000e+00 0.000000e+00
1
Step 650000