1
Step 0
Ar 4.989991e+00 0.000000e+00 0.000000e+00
1
Step 1000
Ar 4.173946e+00 0.000000e+00 0.000000e+00
1
Step 2000
Ar 2.608394e+00 0.000000e+00 0.000000e+00
1
Step 3000
Ar 6.646873e-01 0.000000e+00 0.000000e+00
1
Step 4000
Ar -1.259598e+00 0.000000e+00 0.000000e+00
1
Step 5000
Ar -2.788363e+00 0.000000e+00 0.000000e+00
1
Step 6000
Ar -3.643382e+00 0.000000e+00 0.000000e+00
1
Step 7000
Ar -3.723408e+00 0.000000e+00 0.000000e+00
1
Step 8000
Ar -3.065765e+00 0.000000e+00 0.000000e+00
1
Step 9000
Ar -1.849573e+00 0.000000e+00 0.000000e+00
1
Step 10000
Ar -3.781828e-01 0.000000e+00 0.000000e+00
1
Step 11000
Ar 1.051204e+00 0.000000e+00 0.000000e+00
1
Step 12000
Ar 2.170630e+00 0.000000e+00 0.000000e+00
1
Step 13000
Ar 2.785312e+00 0.000000e+00 0.000000e+00
1
Step 14000
Ar 2.808115e+00 0.000000e+00 0.000000e+00
1
Step 15000
Ar 2.283687e+00 0.000000e+00 0.000000e+00
1
Step 16000
Ar 1.346514e+00 0.000000e+00 0.000000e+00
1
Step 17000
Ar 2.081855e-01 0.000000e+00 0.000000e+00
1
Step 18000
Ar -8.588033e-01 0.000000e+00 0.000000e+00
1
Step 19000
Ar -1.678114e+00 0.000000e+00 0.000000e+00
1
Step 20000
Ar -2.104536e+00 0.000000e+00 0.000000e+00
1
Step 21000
Ar -2.082265e+00 0.000000e+00 0.000000e+00
1
Step 22000
Ar -1.651561e+00 0.000000e+00 0.000000e+00
1
Step 23000
Ar -9.389834e-01 0.000000e+00 0.000000e+00
1
Step 24000
Ar -7.791431e-02 0.000000e+00 0.000000e+00
1
Step 25000
Ar 6.965793e-01 0.000000e+00 0.000000e+00
1
Step 26000
Ar 1.294408e+00 0.000000e+00 0.000000e+00
1
Step 27000
Ar 1.593104e+00 0.000000e+00 0.000000e+00
1
Step 28000
Ar 1.548587e+00 0.000000e+00 0.000000e+00
1
Step 29000
Ar 1.209213e+00 0.000000e+00 0.000000e+00
1
Step 30000
Ar 6.516388e-01 0.000000e+00 0.000000e+00
1
Step 31000
Ar 8.743042e-03 0.000000e+00 0.000000e+00
1
Step 32000
Ar -5.708754e-01 0.000000e+00 0.000000e+00
1
Step 33000
Ar -9.838343e-01 0.000000e+00 0.000000e+00
1
Step 34000
Ar -1.189021e+00 0.000000e+00 0.000000e+00
1
Step 35000
Ar -1.142232e+00 0.000000e+00 0.000000e+00
1
Step 36000
Ar -8.751404e-01 0.000000e+00 0.000000e+00
1
Step 37000
Ar -4.557665e-01 0.000000e+00 0.000000e+00
1
Step 38000
Ar 1.388118e-02 0.000000e+00 0.000000e+00
1
Step 39000
Ar 4.580948e-01 0.000000e+00 0.000000e+00
1
Step 40000
Ar 7.698576e-01 0.000000e+00 0.000000e+00
1
Step 41000
Ar 9.150129e-01 0.000000e+00 0.000000e+00
1
Step 42000
Ar 8.453299e-01 0.000000e+00 0.000000e+00
1
Step 43000
Ar 6.388301e-01 0.000000e+00 0.000000e+00
1
Step 44000
Ar 3.183699e-01 0.000000e+00 0.000000e+00
1
Step 45000
Ar -3.823511e-02 0.000000e+00 0.000000e+00
1
Step 46000
Ar -3.649449e-01 0.000000e+00 0.000000e+00
1
Step 47000
Ar -5.556010e-01 0.000000e+00 0.000000e+00
1
Step 48000
Ar -6.659947e-01 0.000000e+00 0.000000e+00
1
Step 49000
Ar -6.162194e-01 0.000000e+00 0.000000e+00
1
Step 50000
Ar -4.248960e-01 0.000000e+00 0.000000e+00
1
Step 51000
Ar -1.997751e-01 0.000000e+00 0.000000e+00
1
Step 52000
Ar 5.594907e-02 0.000000e+00 0.000000e+00
1
Step 53000
Ar 2.687431e-01 0.000000e+00 0.000000e+00
1
Step 54000
Ar 4.106378e-01 0.000000e+00 0.000000e+00
1
Step 55000
Ar 4.551346e-01 0.000000e+00 0.000000e+00
1
Step 56000
Ar 4.172455e-01 0.000000e+00 0.000000e+00
1
Step 57000
Ar 2.971798e-01 0.000000e+00 0.000000e+00
1
Step 58000
Ar 1.150163e-01 0.000000e+00 0.000000e+00
1
Step 59000
Ar -6.724479e-02 0.000000e+00 0.000000e+00
1
Step 60000
Ar -1.969104e-01 0.000000e+00 0.000000e+00
1
Step 61000
Ar -2.571998e-01 0.000000e+00 0.000000e+00
1
Step 62000
Ar -2.858942e-01 0.000000e+00 0.000000e+00
1
Step 63000
Ar -2.705606e-01 0.000000e+00 0.000000e+00
1
Step 64000
Ar -2.077333e-01 0.000000e+00 0.000000e+00
1
Step 65000
Ar -9.809226e-02 0.000000e+00 0.000000e+00
1
Step 66000
Ar 9.769806e-03 0.000000e+00 0.000000e+00
1
Step 67000
Ar 1.219852e-01 0.000000e+00 0.000000e+00
1
Step 68000
Ar 1.859643e-01 0.000000e+00 0.000000e+00
1
Step 69000
Ar 2.054526e-01 0.000000e+00 0.000000e+00
1
Step 70000
Ar 1.870263e-01 0.000000e+00 0.000000e+00
1
Step 71000
Ar 1.483090e-01 0.000000e+00 0.000000e+00
1
Step 72000
Ar 7.166005e-02 0.000000e+00 0.000000e+00
1
Step 73000
Ar -3.036093e-04 0.000000e+00 0.000000e+00
1
Step 74000
Ar -7.067474e-02 0.000000e+00 0.000000e+00
1
Step 75000
Ar -1.107785e-01 0.000000e+00 0.000000e+00
1
Step 76000
Ar -1.303724e-01 0.000000e+00 0.000000e+00
1
Step 77000
Ar -1.339291e-01 0.000000e+00 0.000000e+00
1
Step 78000
Ar -9.908033e-02 0.000000e+00 0.000000e+00
1
Step 79000
Ar -4.371568e-02 0.000000e+00 0.000000e+00
1
Step 80000
Ar 1.992219e-02 0.000000e+00 0.000000e+00
1
Step 81000
Ar 5.843082e-02 0.000000e+00 0.000000e+00
1
Step 82000
Ar 9.085643e-02 0.000000e+00 0.000000e+00
1
Step 83000
Ar 1.174908e-01 0.000000e+00 0.000000e+00
1
Step 84000
Ar 1.327672e-01 0.000000e+00 0.000000e+00
1
Step 85000
Ar 1.208446e-01 0.000000e+00 0.000000e+00
1
Step 86000
Ar 6.103081e-02 0.000000e+00 0.000000e+00
1
Step 87000
Ar 9.649948e-03 0.000000e+00 0.000000e+00
1
Step 88000
Ar -4.777223e-02 0.000000e+00 0.000000e+00
1
Step 89000
Ar -7.830994e-02 0.000000e+00 0.000000e+00
1
Step 90000
Ar -9.343067e-02 0.000000e+00 0.000000e+00
1
Step 91000
Ar -9.797860e-02 0.000000e+00 0.000000e+00
1
Step 92000
Ar -8.177381e-02 0.000000e+00 0.000000e+00
1
Step 93000
Ar -3.382913e-02 0.000000e+00 0.000000e+00
1
Step 94000
Ar -1.395495e-02 0.000000e+00 0.000000e+00
1
Step 95000
Ar 1.677784e-02 0.000000e+00 0.000000e+00
1
Step 96000
Ar 3.835317e-02 0.000000e+00 0.000000e+00
1
Step 97000
Ar 4.193768e-02 0.000000e+00 0.000000e+00
1
Step 98000
Ar 5.699492e-02 0.000000e+00 0.000000e+00
1
Step 99000
Ar 6.368842e-02 0.000000e+00 0.000000e+00
1
Step 100000
Ar 4.120962e-02 0.000000e+00 0.000000e+00
1
Step 101000
Ar 2.787893e-02 0.000000e+00 0.000000e+00
1
Step 102000
Ar -4.705078e-03 0.000000e+00 0.000000e+00
1
Step 103000
Ar -1.486876e-02 0.000000e+00 0.000000e+00
1
Step 104000
Ar -2.958700e-02 0.000000e+00 0.000000e+00
1
Step 105000
Ar -3.017071e-02 0.000000e+00 0.000000e+00
1
Step 106000
Ar -3.611029e-02 0.000000e+00 0.000000e+00
1
Step 107000
Ar -3.535740e-02 0.000000e+00 0.000000e+00
1
Step 108000
Ar -2.020963e-02 0.000000e+00 0.000000e+00
1
Step 109000
Ar -2.234470e-03 0.000000e+00 0.000000e+00
1
Step 110000
Ar 1.246285e-02 0.000000e+00 0.000000e+00
1
Step 111000
Ar 3.492799e-02 0.000000e+00 0.000000e+00
1
Step 112000
Ar 3.971386e-02 0.000000e+00 0.000000e+00
1
Step 113000
Ar 3.318952e-02 0.000000e+00 0.000000e+00
1
Step 114000
Ar 2.507461e-02 0.000000e+00 0.000000e+00
1
Step 115000
Ar 1.842099e-02 0.000000e+00 0.000000e+00
1
Step 116000
Ar 1.142621e-02 0.000000e+00 0.000000e+00
1
Step 117000
Ar 7.087063e-04 0.000000e+00 0.000000e+00
1
Step 118000
Ar -2.958977e-03 0.000000e+00 0.000000e+00
1
Step 119000
Ar 4.951675e-04 0.000000e+00 0.000000e+00
1
Step 120000
Ar -1.486722e-02 0.000000e+00 0.000000e+00
1
Step 121000
Ar -3.274621e-02 0.000000e+00 0.000000e+00
1
Step 122000
Ar -3.332592e-02 0.000000e+00 0.000000e+00
1
Step 123000
Ar -2.885028e-02 0.000000e+00 0.000000e+00
1
Step 124000
Ar -1.498190e-02 0.000000e+00 0.000000e+00
1
Step 125000
Ar -8.192552e-04 0.000000e+00 0.000000e+00
1
Step 126000
Ar 1.030095e-02 0.000000e+00 0.000000e+00
1
Step 127000
Ar 1.367796e-02 0.000000e+00 0.000000e+00
1
Step 128000
Ar 6.322693e-03 0.000000e+00 0.000000e+00
1
Step 129000
Ar 7.658482e-03 0.000000e+00 0.000000e+00
1
Step 130000
Ar 8.149210e-03 0.000000e+00 0.000000e+00
1
Step 131000
Ar 2.670756e-02 0.000000e+00 0.000000e+00
1
Step 132000
Ar 1.939809e-02 0.000000e+00 0.000000e+00
1
Step 133000
Ar 2.051425e-02 0.000000e+00 0.000000e+00
1
Step 134000
Ar 9.730410e-03 0.000000e+00 0.000000e+00
1
Step 135000
Ar -1.383295e-04 0.000000e+00 0.000000e+00
1
Step 136000
Ar -1.998675e-03 0.000000e+00 0.000000e+00
1
Step 137000
Ar 7.015791e-04 0.000000e+00 0.000000e+00
1
Step 138000
Ar -2.587815e-03 0.000000e+00 0.000000e+00
1
Step 139000
Ar -8.624354e-03 0.000000e+00 0.000000e+00
1
Step 140000
Ar -9.384394e-03 0.000000e+00 0.000000e+00
1
Step 141000
Ar -6.529206e-03 0.000000e+00 0.000000e+00
1
Step 142000
Ar -1.694155e-02 0.000000e+00 0.000000e+00
1
Step 143000
Ar -9.292654e-03 0.000000e+00 0.000000e+00
1
Step 144000
Ar 1.302553e-02 0.000000e+00 0.000000e+00
1
Step 145000
Ar 2.364949e-02 0.000000e+00 0.000000e+00
1
Step 146000
Ar 2.979024e-02 0.000000e+00 0.000000e+00
1
Step 147000
Ar 3.534923e-02 0.000000e+00 0.000000e+00
1
Step 148000
Ar 2.227174e-02 0.000000e+00 0.000000e+00
1
Step 149000
Ar 9.685067e-03 0.000000e+00 0.000000e+00
1
Step 150000
Ar -1.467279e-02 0.000000e+00 0.000000e+00
1
Step 151000
Ar -3.139376e-02 0.000000e+00 0.000000e+00
1
Step 152000
Ar -2.258453e-02 0.000000e+00 0.000000e+00
1
Step 153000
Ar -9.966305e-03 0.000000e+00 0.000000e+00
1
Step 154000
Ar -1.883293e-02 0.000000e+00 0.000000e+00
1
Step 155000
Ar -8.667752e-03 0.000000e+00 0.000000e+00
1
Step 156000
Ar 4.118617e-05 0.000000e+00 0.000000e+00
1
Step 157000
Ar 4.699008e-03 0.000000e+00 0.000000e+00
1
Step 158000
Ar 1.236206e-03 0.000000e+00 0.000000e+00
1
Step 159000
Ar 2.157931e-04 0.000000e+00 0.000000e+00
1
Step 160000
Ar 1.576633e-03 0.000000e+00 0.000000e+00
1
Step 161000
Ar -2.048366e-02 0.000000e+00 0.000000e+00
1
Step 162000
Ar -2.363796e-02 0.000000e+00 0.000000e+00
1
Step 163000
Ar -2.403074e-02 0.000000e+00 0.000000e+00
1
Step 164000
Ar -3.041171e-02 0.000000e+00 0.000000e+00
1
Step 165000
Ar -1.313159e-02 0.000000e+00 0.000000e+00
1
Step 166000
Ar -2.810676e-02 0.000000e+00 0.000000e+00
1
Step 167000
Ar -2.764705e-02 0.000000e+00 0.000000e+00
1
Step 168000
Ar -8.714946e-03 0.000000e+00 0.000000e+00
1
Step 169000
Ar 1.398066e-02 0.000000e+00 0.000000e+00
1
Step 170000
Ar 2.980048e-02 0.000000e+00 0.000000e+00
1
Step 171000
Ar 3.453977e-02 0.000000e+00 0.000000e+00
1
Step 172000
Ar 2.116585e-02 0.000000e+00 0.000000e+00
1
Step 173000
Ar 1.757041e-02 0.000000e+00 0.000000e+00
1
Step 174000
Ar -3.255479e-03 0.000000e+00 0.000000e+00
1
Step 175000
Ar 8.955957e-03 0.000000e+00 0.000000e+00
1
Step 176000
Ar 2.297733e-02 0.000000e+00 0.000000e+00
1
Step 177000
Ar 1.253473e-02 0.000000e+00 0.000000e+00
1
Step 178000
Ar 5.955610e-03 0.000000e+00 0.000000e+00
1
Step 179000
Ar 1.275952e-02 0.000000e+00 0.000000e+00
1
Step 180000
Ar -1.310341e-04 0.000000e+00 0.000000e+00
1
Step 181000
Ar -1.487823e-02 0.000000e+00 0.000000e+00
1
Step 182000
Ar -2.431975e-02 0.000000e+00 0.000000e+00
1
Step 183000
Ar -2.345004e-02 0.000000e+00 0.000000e+00
1
Step 184000
Ar -1.364421e-02 0.000000e+00 0.000000e+00
1
Step 185000
Ar 2.447982e-03 0.000000e+00 0.000000e+00
1
Step 186000
Ar 4.827063e-03 0.000000e+00 0.000000e+00
1
Step 187000
Ar 1.283136e-02 0.000000e+00 0.000000e+00
1
Step 188000
Ar 3.670776e-02 0.000000e+00 0.000000e+00
1
Step 189000
Ar 3.109912e-02 0.000000e+00 0.000000e+00
1
Step 190000
Ar 3.879480e-02 0.000000e+00 0.000000e+00
1
Step 191000
Ar 3.145518e-02 0.000000e+00 0.000000e+00
1
Step 192000
Ar 2.119224e-02 0.000000e+00 0.000000e+00
1
Step 193000
Ar -8.797687e-03 0.000000e+00 0.000000e+00
1
Step 194000
Ar -2.630718e-02 0.000000e+00 0.000000e+00
1
Step 195000
Ar -3.711705e-02 0.000000e+00 0.000000e+00
1
Step 196000
Ar -4.693326e-02 0.000000e+00 0.000000e+00
1
Step 197000
Ar -4.342591e-02 0.000000e+00 0.000000e+00
1
Step 198000
Ar -3.134532e-02 0.000000e+00 0.000000e+00
1
Step 199000
Ar -2.299591e-02 0.000000e+00 0.000000e+00
1
Step 200000
Ar -1.385334e-02 0.000000e+00 0.000000e+00
1
Step 201000
Ar 4.286147e-03 0.000000e+00 0.000000e+00
1
Step 202000
Ar 3.071887e-02 0.000000e+00 0.000000e+00
1
Step 203000
Ar 2.493426e-02 0.000000e+00 0.000000e+00
1
Step 204000
Ar 2.829065e-02 0.000000e+00 0.000000e+00
1
Step 205000
Ar 2.449461e-02 0.000000e+00 0.000000e+00
1
Step 206000
Ar 7.817920e-03 0.000000e+00 0.000000e+00
1
Step 207000
Ar -1.236632e-02 0.000000e+00 0.000000e+00
1
Step 208000
Ar -2.245491e-02 0.000000e+00 0.000000e+00
1
Step 209000
Ar -2.243881e-02 0.000000e+00 0.000000e+00
1
Step 210000
Ar -1.786755e-02 0.000000e+00 0.000000e+00
1
Step 211000
Ar -1.398828e-02 0.000000e+00 0.000000e+00
1
Step 212000
Ar 2.876294e-03 0.000000e+00 0.000000e+00
1
Step 213000
Ar 5.825394e-03 0.000000e+00 0.000000e+00
1
Step 214000
Ar 9.045615e-03 0.000000e+00 0.000000e+00
1
Step 215000
Ar 7.626772e-03 0.000000e+00 0.000000e+00
1
Step 216000
Ar -2.185488e-03 0.000000e+00 0.000000e+00
1
Step 217000
Ar -1.823302e-02 0.000000e+00 0.000000e+00
1
Step 218000
Ar -1.184415e-02 0.000000e+00 0.000000e+00
1
Step 219000
Ar 1.716627e-02 0.000000e+00 0.000000e+00
1
Step 220000
Ar 3.383416e-02 0.000000e+00 0.000000e+00
1
Step 221000
Ar 2.451648e-02 0.000000e+00 0.000000e+00
1
Step 222000
Ar 2.403436e-02 0.000000e+00 0.000000e+00
1
Step 223000
Ar 2.379762e-02 0.000000e+00 0.000000e+00
1
Step 224000
Ar 2.315143e-02 0.000000e+00 0.000000e+00
1
Step 225000
Ar -4.007357e-03 0.000000e+00 0.000000e+00
1
Step 226000
Ar -1.648315e-02 0.000000e+00 0.000000e+00
1
Step 227000
Ar -1.201904e-02 0.000000e+00 0.000000e+00
1
Step 228000
Ar -1.459030e-02 0.000000e+00 0.000000e+00
1
Step 229000
Ar 8.356813e-03 0.000000e+00 0.000000e+00
1
Step 230000
Ar 1.157802e-02 0.000000e+00 0.000000e+00
1
Step 231000
Ar 2.326175e-02 0.000000e+00 0.000000e+00
1
Step 232000
Ar 2.215738e-02 0.000000e+00 0.000000e+00
1
Step 233000
Ar 1.155260e-02 0.000000e+00 0.000000e+00
1
Step 234000
Ar 1.082772e-02 0.000000e+00 0.000000e+00
1
Step 235000
Ar -8.022728e-05 0.000000e+00 0.000000e+00
1
Step 236000
Ar -6.544137e-03 0.000000e+00 0.000000e+00
1
Step 237000
Ar 1.039448e-03 0.000000e+00 0.000000e+00
1
Step 238000
Ar 1.039875e-02 0.000000e+00 0.000000e+00
1
Step 239000
Ar 1.198877e-02 0.000000e+00 0.000000e+00
1
Step 240000
Ar 8.934395e-03 0.000000e+00 0.000000e+00
1
Step 241000
Ar 1.085099e-02 0.000000e+00 0.000000e+00
1
Step 242000
Ar 5.341075e-03 0.000000e+00 0.000000e+00
1
Step 243000
Ar -2.064608e-02 0.000000e+00 0.000000e+00
1
Step 244000
Ar -3.762203e-02 0.000000e+00 0.000000e+00
1
Step 245000
Ar -4.420341e-02 0.000000e+00 0.000000e+00
1
Step 246000
Ar -2.109260e-02 0.000000e+00 0.000000e+00
1
Step 247000
Ar -3.627823e-02 0.000000e+00 0.000000e+00
1
Step 248000
Ar -3.586569e-02 0.000000e+00 0.000000e+00
1
Step 249000
Ar -2.792134e-02 0.000000e+00 0.000000e+00
1
Step 250000
Ar -1.582228e-02 0.000000e+00 0.000000e+00
1
Step 251000
Ar 4.760467e-03 0.000000e+00 0.000000e+00
1
Step 252000
Ar 3.129046e-02 0.000000e+00 0.000000e+00
1
Step 253000
Ar 3.863690e-02 0.000000e+00 0.000000e+00
1
Step 254000
Ar 4.454690e-02 0.000000e+00 0.000000e+00
1
Step 255000
Ar 4.004812e-02 0.000000e+00 0.000000e+00
1
Step 256000
Ar 2.277323e-02 0.000000e+00 0.000000e+00
1
Step 257000
Ar 1.090703e-02 0.000000e+00 0.000000e+00
1
Step 258000
Ar 7.181332e-03 0.000000e+00 0.000000e+00
1
Step 259000
Ar 1.182517e-02 0.000000e+00 0.000000e+00
1
Step 260000
Ar 1.149161e-02 0.000000e+00 0.000000e+00
1
Step 261000
Ar -2.509622e-03 0.000000e+00 0.000000e+00
1
Step 262000
Ar -2.170634e-03 0.000000e+00 0.000000e+00
1
Step 263000
Ar -8.302294e-03 0.000000e+00 0.000000e+00
1
Step 264000
Ar -1.263913e-02 0.000000e+00 0.000000e+00
1
Step 265000
Ar -1.533194e-02 0.000000e+00 0.000000e+00
1
Step 266000
Ar -1.116831e-02 0.000000e+00 0.000000e+00
1
Step 267000
Ar -1.980790e-02 0.000000e+00 0.000000e+00
1
Step 268000
Ar -1.424145e-02 0.000000e+00 0.000000e+00
1
Step 269000
Ar -2.801690e-02 0.000000e+00 0.000000e+00
1
Step 270000
Ar -1.561078e-02 0.000000e+00 0.000000e+00
1
Step 271000
Ar -2.023216e-02 0.000000e+00 0.000000e+00
1
Step 272000
Ar -2.336705e-02 0.000000e+00 0.000000e+00
1
Step 273000
Ar -1.492565e-03 0.000000e+00 0.000000e+00
1
Step 274000
Ar 3.340791e-02 0.000000e+00 0.000000e+00
1
Step 275000
Ar 4.320186e-02 0.000000e+00 0.000000e+00
1
Step 276000
Ar 4.198922e-02 0.000000e+00 0.000000e+00
1
Step 277000
Ar 3.613411e-02 0.000000e+00 0.000000e+00
1
Step 278000
Ar 3.237733e-02 0.000000e+00 0.000000e+00
1
Step 279000
Ar 3.068016e-02 0.000000e+00 0.000000e+00
1
Step 280000
Ar 2.958061e-02 0.000000e+00 0.000000e+00
1
Step 281000
Ar 3.509751e-02 0.000000e+00 0.000000e+00
1
Step 282000
Ar 2.088379e-02 0.000000e+00 0.000000e+00
1
Step 283000
Ar 8.808723e-03 0.000000e+00 0.000000e+00
1
Step 284000
Ar -1.493093e-02 0.000000e+00 0.000000e+00
1
Step 285000
Ar -3.004170e-02 0.000000e+00 0.000000e+00
1
Step 286000
Ar -4.596130e-02 0.000000e+00 0.000000e+00
1
Step 287000
Ar -2.843809e-02 0.000000e+00 0.000000e+00
1
Step 288000
Ar -4.133244e-02 0.000000e+00 0.000000e+00
1
Step 289000
Ar -5.760786e-02 0.000000e+00 0.000000e+00
1
Step 290000
Ar -6.677965e-02 0.000000e+00 0.000000e+00
1
Step 291000
Ar -5.635941e-02 0.000000e+00 0.000000e+00
1
Step 292000
Ar -2.580502e-02 0.000000e+00 0.000000e+00
1
Step 293000
Ar 1.696439e-02 0.000000e+00 0.000000e+00
1
Step 294000
Ar 5.201930e-02 0.000000e+00 0.000000e+00
1
Step 295000
Ar 7.064983e-02 0.000000e+00 0.000000e+00
1
Step 296000
Ar 7.300393e-02 0.000000e+00 0.000000e+00
1
Step 297000
Ar 5.537801e-02 0.000000e+00 0.000000e+00
1
Step 298000
Ar 2.295181e-02 0.000000e+00 0.000000e+00
1
Step 299000
Ar -4.259634e-03 0.000000e+00 0.000000e+00
