1
Step 120000
Ar 9.979195e-01 0.000000e+00 0.000000e+00
1
Step 121000
Ar 9.930691e-01 0.000000e+00 0.000000e+00
1
Step 122000
Ar 1.013275e+00 0.000000e+00 0.000000e+00
1
Step 123000
Ar 1.021761e+00 0.000000e+00 0.000000e+00
1
Step 124000
Ar 9.961870e-01 0.000000e+00 0.000000e+00
1
Step 125000
Ar 9.967504e-01 0.000000e+00 0.000000e+00
1
Step 126000
Ar 1.023999e+00 0.000000e+00 0.000000e+00
1
Step 127000
Ar 1.024961e+00 0.000000e+00 0.000000e+00
1
Step 128000
Ar 1.012513e+00 0.000000e+00 0.000000e+00
1
Step 129000
Ar 1.020930e+00 0.000000e+00 0.000000e+00
1
Step 130000
Ar 1.011215e+00 0.000000e+00 0.000000e+00
1
Step 131000
Ar 1.019902e+00 0.000000e+00 0.000000e+00
1
Step 132000
Ar 1.029173e+00 0.000000e+00 0.000000e+00
1
Step 133000
Ar 1.021508e+00 0.000000e+00 0.000000e+00
1
Step 134000
Ar 1.024874e+00 0.000000e+00 0.000000e+00
1
Step 135000
Ar 1.022599e+00 0.000000e+00 0.000000e+00
1
Step 136000
Ar 9.835318e-01 0.000000e+00 0.000000e+00
1
Step 137000
Ar 9.827486e-01 0.000000e+00 0.000000e+00
1
Step 138000
Ar 9.753895e-01 0.000000e+00 0.000000e+00
1
Step 139000
Ar 9.756692e-01 0.000000e+00 0.000000e+00
1
Step 140000
Ar 9.654408e-01 0.000000e+00 0.000000e+00
1
Step 141000
Ar 9.534266e-01 0.000000e+00 0.000000e+00
1
Step 142000
Ar 9.543279e-01 0.000000e+00 0.000000e+00
1
Step 143000
Ar 9.531063e-01 0.000000e+00 0.000000e+00
1
Step 144000
Ar 9.501655e-01 0.000000e+00 0.000000e+00
1
Step 145000
Ar 9.559684e-01 0.000000e+00 0.000000e+00
1
Step 146000
Ar 9.428512e-01 0.000000e+00 0.000000e+00
1
Step 147000
Ar 9.436148e-01 0.000000e+00 0.000000e+00
1
Step 148000
Ar 9.465654e-01 0.000000e+00 0.000000e+00
1
Step 149000
Ar 9.468081e-01 0.000000e+00 0.000000e+00
1
Step 150000
Ar 9.464281e-01 0.000000e+00 0.000000e+00
1
Step 151000
Ar 9.225715e-01 0.000000e+00 0.000000e+00
1
Step 152000
Ar 9.311969e-01 0.000000e+00 0.000000e+00
1
Step 153000
Ar 9.386840e-01 0.000000e+00 0.000000e+00
1
Step 154000
Ar 9.340262e-01 0.000000e+00 0.000000e+00
1
Step 155000
Ar 9.308672e-01 0.000000e+00 0.000000e+00
1
Step 156000
Ar 9.213130e-01 0.000000e+00 0.000000e+00
1
Step 157000
Ar 9.198214e-01 0.000000e+00 0.000000e+00
1
Step 158000
Ar 9.228758e-01 0.000000e+00 0.000000e+00
1
Step 159000
Ar 9.175397e-01 0.000000e+00 0.000000e+00
1
Step 160000
Ar 9.201110e-01 0.000000e+00 0.000000e+00
1
Step 161000
Ar 9.874927e-01 0.000000e+00 0.000000e+00
1
Step 162000
Ar 9.813138e-01 0.000000e+00 0.000000e+00
1
Step 163000
Ar 9.814246e-01 0.000000e+00 0.000000e+00
1
Step 164000
Ar 9.831494e-01 0.000000e+00 0.000000e+00
1
Step 165000
Ar 9.841817e-01 0.000000e+00 0.000000e+00
1
Step 166000
Ar 1.002505e+00 0.000000e+00 0.000000e+00
1
Step 167000
Ar 1.040015e+00 0.000000e+00 0.000000e+00
1
Step 168000
Ar 1.049314e+00 0.000000e+00 0.000000e+00
1
Step 169000
Ar 1.040294e+00 0.000000e+00 0.000000e+00
1
Step 170000
Ar 1.038838e+00 0.000000e+00 0.000000e+00
1
Step 171000
Ar 9.135567e-01 0.000000e+00 0.000000e+00
1
Step 172000
Ar 1.017729e+00 0.000000e+00 0.000000e+00
1
Step 173000
Ar 1.004948e+00 0.000000e+00 0.000000e+00
1
Step 174000
Ar 1.060436e+00 0.000000e+00 0.000000e+00
1
Step 175000
Ar 1.048840e+00 0.000000e+00 0.000000e+00
1
Step 176000
Ar 9.092197e-01 0.000000e+00 0.000000e+00
1
Step 177000
Ar 9.083742e-01 0.000000e+00 0.000000e+00
1
Step 178000
Ar 9.089944e-01 0.000000e+00 0.000000e+00
1
Step 179000
Ar 9.060034e-01 0.000000e+00 0.000000e+00
1
Step 180000
Ar 9.072117e-01 0.000000e+00 0.000000e+00
1
Step 181000
Ar 1.060413e+00 0.000000e+00 0.000000e+00
1
Step 182000
Ar 1.059544e+00 0.000000e+00 0.000000e+00
1
Step 183000
Ar 1.068077e+00 0.000000e+00 0.000000e+00
1
Step 184000
Ar 1.061176e+00 0.000000e+00 0.000000e+00
1
Step 185000
Ar 1.054446e+00 0.000000e+00 0.000000e+00
1
Step 186000
Ar 9.621861e-01 0.000000e+00 0.000000e+00
1
Step 187000
Ar 1.004466e+00 0.000000e+00 0.000000e+00
1
Step 188000
Ar 1.080558e+00 0.000000e+00 0.000000e+00
1
Step 189000
Ar 1.047725e+00 0.000000e+00 0.000000e+00
1
Step 190000
Ar 1.068173e+00 0.000000e+00 0.000000e+00
1
Step 191000
Ar 1.057719e+00 0.000000e+00 0.000000e+00
1
Step 192000
Ar 1.078389e+00 0.000000e+00 0.000000e+00
1
Step 193000
Ar 1.077407e+00 0.000000e+00 0.000000e+00
1
Step 194000
Ar 1.082918e+00 0.000000e+00 0.000000e+00
1
Step 195000
Ar 9.782428e-01 0.000000e+00 0.000000e+00
1
Step 196000
Ar 8.967934e-01 0.000000e+00 0.000000e+00
1
Step 197000
Ar 8.997090e-01 0.000000e+00 0.000000e+00
1
Step 198000
Ar 8.952693e-01 0.000000e+00 0.000000e+00
1
Step 199000
Ar 8.957779e-01 0.000000e+00 0.000000e+00
1
Step 200000
Ar 8.934894e-01 0.000000e+00 0.000000e+00
1
Step 201000
Ar 9.970804e-01 0.000000e+00 0.000000e+00
1
Step 202000
Ar 1.078497e+00 0.000000e+00 0.000000e+00
1
Step 203000
Ar 1.078849e+00 0.000000e+00 0.000000e+00
1
Step 204000
Ar 1.075936e+00 0.000000e+00 0.000000e+00
1
Step 205000
Ar 1.080972e+00 0.000000e+00 0.000000e+00
1
Step 206000
Ar 1.014653e+00 0.000000e+00 0.000000e+00
1
Step 207000
Ar 9.917169e-01 0.000000e+00 0.000000e+00
1
Step 208000
Ar 1.000283e+00 0.000000e+00 0.000000e+00
1
Step 209000
Ar 9.921125e-01 0.000000e+00 0.000000e+00
1
Step 210000
Ar 9.755174e-01 0.000000e+00 0.000000e+00
1
Step 211000
Ar 9.651041e-01 0.000000e+00 0.000000e+00
1
Step 212000
Ar 9.660049e-01 0.000000e+00 0.000000e+00
1
Step 213000
Ar 9.639672e-01 0.000000e+00 0.000000e+00
1
Step 214000
Ar 9.680690e-01 0.000000e+00 0.000000e+00
1
Step 215000
Ar 9.694600e-01 0.000000e+00 0.000000e+00
1
Step 216000
Ar 8.357994e-01 0.000000e+00 0.000000e+00
1
Step 217000
Ar 8.644677e-01 0.000000e+00 0.000000e+00
1
Step 218000
Ar 9.376496e-01 0.000000e+00 0.000000e+00
1
Step 219000
Ar 9.413518e-01 0.000000e+00 0.000000e+00
1
Step 220000
Ar 9.444915e-01 0.000000e+00 0.000000e+00
1
Step 221000
Ar 1.014410e+00 0.000000e+00 0.000000e+00
1
Step 222000
Ar 9.596357e-01 0.000000e+00 0.000000e+00
1
Step 223000
Ar 9.571191e-01 0.000000e+00 0.000000e+00
1
Step 224000
Ar 9.577593e-01 0.000000e+00 0.000000e+00
1
Step 225000
Ar 9.571850e-01 0.000000e+00 0.000000e+00
1
Step 226000
Ar 1.002979e+00 0.000000e+00 0.000000e+00
1
Step 227000
Ar 1.136407e+00 0.000000e+00 0.000000e+00
1
Step 228000
Ar 1.014711e+00 0.000000e+00 0.000000e+00
1
Step 229000
Ar 1.058492e+00 0.000000e+00 0.000000e+00
1
Step 230000
Ar 9.637510e-01 0.000000e+00 0.000000e+00
1
Step 231000
Ar 8.852604e-01 0.000000e+00 0.000000e+00
1
Step 232000
Ar 1.031343e+00 0.000000e+00 0.000000e+00
1
Step 233000
Ar 1.007973e+00 0.000000e+00 0.000000e+00
1
Step 234000
Ar 1.068780e+00 0.000000e+00 0.000000e+00
1
Step 235000
Ar 8.833690e-01 0.000000e+00 0.000000e+00
1
Step 236000
Ar 7.507864e-01 0.000000e+00 0.000000e+00
1
Step 237000
Ar 1.177367e+00 0.000000e+00 0.000000e+00
1
Step 238000
Ar 9.933704e-01 0.000000e+00 0.000000e+00
1
Step 239000
Ar 8.717403e-01 0.000000e+00 0.000000e+00
1
Step 240000
Ar 8.859106e-01 0.000000e+00 0.000000e+00
1
Step 241000
Ar 1.087303e+00 0.000000e+00 0.000000e+00
1
Step 242000
Ar 9.879908e-01 0.000000e+00 0.000000e+00
1
Step 243000
Ar 8.699230e-01 0.000000e+00 0.000000e+00
1
Step 244000
Ar 8.688445e-01 0.000000e+00 0.000000e+00
1
Step 245000
Ar 8.737529e-01 0.000000e+00 0.000000e+00
1
Step 246000
Ar 8.624283e-01 0.000000e+00 0.000000e+00
1
Step 247000
Ar 8.618579e-01 0.000000e+00 0.000000e+00
1
Step 248000
Ar 8.614070e-01 0.000000e+00 0.000000e+00
1
Step 249000
Ar 8.639787e-01 0.000000e+00 0.000000e+00
1
Step 250000
Ar 8.665194e-01 0.000000e+00 0.000000e+00
1
Step 251000
Ar 8.581764e-01 0.000000e+00 0.000000e+00
1
Step 252000
Ar 8.574100e-01 0.000000e+00 0.000000e+00
1
Step 253000
Ar 8.558937e-01 0.000000e+00 0.000000e+00
1
Step 254000
Ar 8.552958e-01 0.000000e+00 0.000000e+00
1
Step 255000
Ar 8.573489e-01 0.000000e+00 0.000000e+00
1
Step 256000
Ar 8.514802e-01 0.000000e+00 0.000000e+00
1
Step 257000
Ar 8.472611e-01 0.000000e+00 0.000000e+00
1
Step 258000
Ar 1.043586e+00 0.000000e+00 0.000000e+00
1
Step 259000
Ar 1.093191e+00 0.000000e+00 0.000000e+00
1
Step 260000
Ar 1.093622e+00 0.000000e+00 0.000000e+00
1
Step 261000
Ar 1.145324e+00 0.000000e+00 0.000000e+00
1
Step 262000
Ar 9.529838e-01 0.000000e+00 0.000000e+00
1
Step 263000
Ar 8.445699e-01 0.000000e+00 0.000000e+00
1
Step 264000
Ar 8.467511e-01 0.000000e+00 0.000000e+00
1
Step 265000
Ar 8.457272e-01 0.000000e+00 0.000000e+00
1
Step 266000
Ar 9.319590e-01 0.000000e+00 0.000000e+00
1
Step 267000
Ar 8.638942e-01 0.000000e+00 0.000000e+00
1
Step 268000
Ar 1.083513e+00 0.000000e+00 0.000000e+00
1
Step 269000
Ar 9.856080e-01 0.000000e+00 0.000000e+00
1
Step 270000
Ar 9.151645e-01 0.000000e+00 0.000000e+00
1
Step 271000
Ar 9.913238e-01 0.000000e+00 0.000000e+00
1
Step 272000
Ar 9.049683e-01 0.000000e+00 0.000000e+00
1
Step 273000
Ar 1.080703e+00 0.000000e+00 0.000000e+00
1
Step 274000
Ar 1.021842e+00 0.000000e+00 0.000000e+00
1
Step 275000
Ar 9.856935e-01 0.000000e+00 0.000000e+00
1
Step 276000
Ar 1.028418e+00 0.000000e+00 0.000000e+00
1
Step 277000
Ar 8.377255e-01 0.000000e+00 0.000000e+00
1
Step 278000
Ar 1.043240e+00 0.000000e+00 0.000000e+00
1
Step 279000
Ar 1.103903e+00 0.000000e+00 0.000000e+00
1
Step 280000
Ar 1.100655e+00 0.000000e+00 0.000000e+00
1
Step 281000
Ar 1.105177e+00 0.000000e+00 0.000000e+00
1
Step 282000
Ar 1.110967e+00 0.000000e+00 0.000000e+00
1
Step 283000
Ar 1.110694e+00 0.000000e+00 0.000000e+00
1
Step 284000
Ar 1.109395e+00 0.000000e+00 0.000000e+00
1
Step 285000
Ar 1.110268e+00 0.000000e+00 0.000000e+00
1
Step 286000
Ar 1.008526e+00 0.000000e+00 0.000000e+00
1
Step 287000
Ar 1.092449e+00 0.000000e+00 0.000000e+00
1
Step 288000
Ar 1.006376e+00 0.000000e+00 0.000000e+00
1
Step 289000
Ar 9.841116e-01 0.000000e+00 0.000000e+00
1
Step 290000
Ar 8.117441e-01 0.000000e+00 0.000000e+00
1
Step 291000
Ar 1.064844e+00 0.000000e+00 0.000000e+00
1
Step 292000
Ar 1.001570e+00 0.000000e+00 0.000000e+00
1
Step 293000
Ar 1.008197e+00 0.000000e+00 0.000000e+00
1
Step 294000
Ar 8.469183e-01 0.000000e+00 0.000000e+00
1
Step 295000
Ar 9.027973e-01 0.000000e+00 0.000000e+00
1
Step 296000
Ar 9.512629e-01 0.000000e+00 0.000000e+00
1
Step 297000
Ar 9.688297e-01 0.000000e+00 0.000000e+00
1
Step 298000
Ar 9.364146e-01 0.000000e+00 0.000000e+00
1
Step 299000
Ar 1.030847e+00 0.000000e+00 0.000000e+00
1
Step 300000
Ar 1.058789e+00 0.000000e+00 0.000000e+00
1
Step 301000
Ar 8.787230e-01 0.000000e+00 0.000000e+00
1
Step 302000
Ar 9.283540e-01 0.000000e+00 0.000000e+00
1
Step 303000
Ar 1.121678e+00 0.000000e+00 0.000000e+00
1
Step 304000
Ar 1.110731e+00 0.000000e+00 0.000000e+00
1
Step 305000
Ar 1.003958e+00 0.000000e+00 0.000000e+00
1
Step 306000
Ar 1.029879e+00 0.000000e+00 0.000000e+00
1
Step 307000
Ar 1.014153e+00 0.000000e+00 0.000000e+00
1
Step 308000
Ar 1.116900e+00 0.000000e+00 0.000000e+00
1
Step 309000
Ar 8.473925e-01 0.000000e+00 0.000000e+00
1
Step 310000
Ar 9.552985e-01 0.000000e+00 0.000000e+00
1
Step 311000
Ar 1.031195e+00 0.000000e+00 0.000000e+00
1
Step 312000
Ar 8.620920e-01 0.000000e+00 0.000000e+00
1
Step 313000
Ar 1.024169e+00 0.000000e+00 0.000000e+00
1
Step 314000
Ar 4.085570e-01 0.000000e+00 0.000000e+00
1
Step 315000
Ar 1.002519e+00 0.000000e+00 0.000000e+00
1
Step 316000
Ar 8.514936e-01 0.000000e+00 0.000000e+00
1
Step 317000
Ar 7.900299e-01 0.000000e+00 0.000000e+00
1
Step 318000
Ar 9.993114e-01 0.000000e+00 0.000000e+00
1
Step 319000
Ar 9.056580e-01 0.000000e+00 0.000000e+00
1
Step 320000
Ar 8.988941e-01 0.000000e+00 0.000000e+00
1
Step 321000
Ar 1.116909e+00 0.000000e+00 0.000000e+00
1
Step 322000
Ar 9.153369e-01 0.000000e+00 0.000000e+00
1
Step 323000
Ar 1.123838e+00 0.000000e+00 0.000000e+00
1
Step 324000
Ar 1.071621e+00 0.000000e+00 0.000000e+00
1
Step 325000
Ar 7.792908e-01 0.000000e+00 0.000000e+00
1
Step 326000
Ar 6.302469e-01 0.000000e+00 0.000000e+00
1
Step 327000
Ar 5.846335e-01 0.000000e+00 0.000000e+00
1
Step 328000
Ar 1.040560e+00 0.000000e+00 0.000000e+00
1
Step 329000
Ar 9.142201e-01 0.000000e+00 0.000000e+00
1
Step 330000
Ar 1.023006e+00 0.000000e+00 0.000000e+00
1
Step 331000
Ar 9.242728e-01 0.000000e+00 0.000000e+00
1
Step 332000
Ar 6.926090e-01 0.000000e+00 0.000000e+00
1
Step 333000
Ar 1.147544e+00 0.000000e+00 0.000000e+00
1
Step 334000
Ar 1.092722e+00 0.000000e+00 0.000000e+00
1
Step 335000
Ar 1.116250e+00 0.000000e+00 0.000000e+00
1
Step 336000
Ar 1.130175e+00 0.000000e+00 0.000000e+00
1
Step 337000
Ar 1.124958e+00 0.000000e+00 0.000000e+00
1
Step 338000
Ar 1.121873e+00 0.000000e+00 0.000000e+00
1
Step 339000
Ar 1.124198e+00 0.000000e+00 0.000000e+00
1
Step 340000
Ar 1.124352e+00 0.000000e+00 0.000000e+00
1
Step 341000
Ar 1.034938e+00 0.000000e+00 0.000000e+00
1
Step 342000
Ar 1.072454e+00 0.000000e+00 0.000000e+00
1
Step 343000
Ar 1.072810e+00 0.000000e+00 0.000000e+00
1
Step 344000
Ar 1.069369e+00 0.000000e+00 0.000000e+00
1
Step 345000
Ar 7.783960e-01 0.000000e+00 0.000000e+00
1
Step 346000
Ar 7.636908e-01 0.000000e+00 0.000000e+00
1
Step 347000
Ar 7.667922e-01 0.000000e+00 0.000000e+00
1
Step 348000
Ar 9.148805e-01 0.000000e+00 0.000000e+00
1
Step 349000
Ar 9.067150e-01 0.000000e+00 0.000000e+00
1
Step 350000
Ar 6.328580e-01 0.000000e+00 0.000000e+00
1
Step 351000
Ar 1.048729e+00 0.000000e+00 0.000000e+00
1
Step 352000
Ar 7.612450e-01 0.000000e+00 0.000000e+00
1
Step 353000
Ar 1.069319e+00 0.000000e+00 0.000000e+00
1
Step 354000
Ar 1.070612e+00 0.000000e+00 0.000000e+00
1
Step 355000
Ar 1.064923e+00 0.000000e+00 0.000000e+00
1
Step 356000
Ar 8.381315e-01 0.000000e+00 0.000000e+00
1
Step 357000
Ar 8.358611e-01 0.000000e+00 0.000000e+00
1
Step 358000
Ar 8.358745e-01 0.000000e+00 0.000000e+00
1
Step 359000
Ar 1.069569e+00 0.000000e+00 0.000000e+00
1
Step 360000
Ar 1.152261e+00 0.000000e+00 0.000000e+00
1
Step 361000
Ar 9.749712e-01 0.000000e+00 0.000000e+00
1
Step 362000
Ar 8.041205e-01 0.000000e+00 0.000000e+00
1
Step 363000
Ar 9.179117e-01 0.000000e+00 0.000000e+00
1
Step 364000
Ar 1.131412e+00 0.000000e+00 0.000000e+00
1
Step 365000
Ar 8.645735e-01 0.000000e+00 0.000000e+00
1
Step 366000
Ar 9.516118e-01 0.000000e+00 0.000000e+00
1
Step 367000
Ar 1.079183e+00 0.000000e+00 0.000000e+00
1
Step 368000
Ar 1.139292e+00 0.000000e+00 0.000000e+00
1
Step 369000
Ar 1.076475e+00 0.000000e+00 0.000000e+00
1
Step 370000
Ar 9.771778e-01 0.000000e+00 0.000000e+00
1
Step 371000
Ar 9.292387e-01 0.000000e+00 0.000000e+00
1
Step 372000
Ar 1.132586e+00 0.000000e+00 0.000000e+00
1
Step 373000
Ar 1.131123e+00 0.000000e+00 0.000000e+00
1
Step 374000
Ar 1.133869e+00 0.000000e+00 0.000000e+00
1
Step 375000
Ar 1.132024e+00 0.000000e+00 0.000000e+00
1
Step 376000
Ar 1.141834e+00 0.000000e+00 0.000000e+00
1
Step 377000
Ar 6.714468e-01 0.000000e+00 0.000000e+00
1
Step 378000
Ar 1.059275e+00 0.000000e+00 0.000000e+00
1
Step 379000
Ar 1.176109e+00 0.000000e+00 0.000000e+00
1
Step 380000
Ar 9.453030e-01 0.000000e+00 0.000000e+00
1
Step 381000
Ar 8.405961e-01 0.000000e+00 0.000000e+00
1
Step 382000
Ar 7.700988e-01 0.000000e+00 0.000000e+00
1
Step 383000
Ar 7.653419e-01 0.000000e+00 0.000000e+00
1
Step 384000
Ar 7.661917e-01 0.000000e+00 0.000000e+00
1
Step 385000
Ar 7.692527e-01 0.000000e+00 0.000000e+00
1
Step 386000
Ar 7.615745e-01 0.000000e+00 0.000000e+00
1
Step 387000
Ar 1.138301e+00 0.000000e+00 0.000000e+00
1
Step 388000
Ar 9.683047e-01 0.000000e+00 0.000000e+00
1
Step 389000
Ar 9.622197e-01 0.000000e+00 0.000000e+00
1
Step 390000
Ar 5.148041e-01 0.000000e+00 0.000000e+00
1
Step 391000
Ar 8.968606e-01 0.000000e+00 0.000000e+00
1
Step 392000
Ar 1.146504e+00 0.000000e+00 0.000000e+00
1
Step 393000
Ar 1.090740e+00 0.000000e+00 0.000000e+00
1
Step 394000
Ar 1.206477e+00 0.000000e+00 0.000000e+00
1
Step 395000
Ar 8.399601e-01 0.000000e+00 0.000000e+00
1
Step 396000
Ar 1.135393e+00 0.000000e+00 0.000000e+00
1
Step 397000
Ar 1.218351e+00 0.000000e+00 0.000000e+00
1
Step 398000
Ar 1.188520e+00 0.000000e+00 0.000000e+00
1
Step 399000
Ar 6.266059e-01 0.000000e+00 0.000000e+00
1
Step 400000
Ar 7.718592e-01 0.000000e+00 0.000000e+00
1
Step 401000
Ar -1.018127e+00 0.000000e+00 0.000000e+00
1
Step 402000
Ar -1.013697e+00 0.000000e+00 0.000000e+00
1
Step 403000
Ar -9.726159e-01 0.000000e+00 0.000000e+00
1
Step 404000
Ar -1.010181e+00 0.000000e+00 0.000000e+00
1
Step 405000
Ar -1.016218e+00 0.000000e+00 0.000000e+00
1
Step 406000
Ar -1.005842e+00 0.000000e+00 0.000000e+00
1
Step 407000
Ar -9.919051e-01 0.000000e+00 0.000000e+00
1
Step 408000
Ar -9.715061e-01 0.000000e+00 0.000000e+00
1
Step 409000
Ar -9.973667e-01 0.000000e+00 0.000000e+00
1
Step 410000
Ar -9.988790e-01 0.000000e+00 0.000000e+00
1
Step 411000
Ar -9.826501e-01 0.000000e+00 0.000000e+00
1
Step 412000
Ar -9.826437e-01 0.000000e+00 0.000000e+00
1
Step 413000
Ar -9.800261e-01 0.000000e+00 0.000000e+00
1
Step 414000
Ar -9.868186e-01 0.000000e+00 0.000000e+00
1
Step 415000
Ar -9.875797e-01 0.000000e+00 0.000000e+00
1
Step 416000
Ar -9.743701e-01 0.000000e+00 0.000000e+00
1
Step 417000
Ar -9.609041e-01 0.000000e+00 0.000000e+00
1
Step 418000
Ar -9.730105e-01 0.000000e+00 0.000000e+00
1
Step 419000
Ar -9.667464e-01 0.000000e+00 0.000000e+00
1
Step 420000
Ar -9.720436e-01 0.000000e+00 0.000000e+00
1
Step 421000
Ar -1.026416e+00 0.000000e+00 0.000000e+00
1
Step 422000
Ar -1.029326e+00 0.000000e+00 0.000000e+00
1
Step 423000
Ar -1.023393e+00 0.000000e+00 0.000000e+00
1
Step 424000
Ar -1.029421e+00 0.000000e+00 0.000000e+00
1
Step 425000
Ar -1.031557e+00 0.000000e+00 0.000000e+00
1
Step 426000
Ar -9.603565e-01 0.000000e+00 0.000000e+00
1
Step 427000
Ar -9.555537e-01 0.000000e+00 0.000000e+00
1
Step 428000
Ar -9.591297e-01 0.000000e+00 0.000000e+00
1
Step 429000
Ar -9.524265e-01 0.000000e+00 0.000000e+00
1
Step 430000
Ar -9.620799e-01 0.000000e+00 0.000000e+00
1
Step 431000
Ar -1.046668e+00 0.000000e+00 0.000000e+00
1
Step 432000
Ar -1.049254e+00 0.000000e+00 0.000000e+00
1
Step 433000
Ar -1.048955e+00 0.000000e+00 0.000000e+00
1
Step 434000
Ar -1.050032e+00 0.000000e+00 0.000000e+00
1
Step 435000
Ar -1.046640e+00 0.000000e+00 0.000000e+00
1
Step 436000
Ar -1.060103e+00 0.000000e+00 0.000000e+00
1
Step 437000
Ar -1.059274e+00 0.000000e+00 0.000000e+00
1
Step 438000
Ar -1.062958e+00 0.000000e+00 0.000000e+00
1
Step 439000
Ar -1.056494e+00 0.000000e+00 0.000000e+00
1
Step 440000
Ar -1.060584e+00 0.000000e+00 0.000000e+00
1
Step 441000
Ar -9.492133e-01 0.000000e+00 0.000000e+00
1
Step 442000
Ar -9.491692e-01 0.000000e+00 0.000000e+00
1
Step 443000
Ar -9.525242e-01 0.000000e+00 0.000000e+00
1
Step 444000
Ar -9.540576e-01 0.000000e+00 0.000000e+00
1
Step 445000
Ar -9.500749e-01 0.000000e+00 0.000000e+00
1
Step 446000
Ar -9.304979e-01 0.000000e+00 0.000000e+00
1
Step 447000
Ar -9.374831e-01 0.000000e+00 0.000000e+00
1
Step 448000
Ar -9.348648e-01 0.000000e+00 0.000000e+00
1
Step 449000
Ar -9.394207e-01 0.000000e+00 0.000000e+00
1
Step 450000
Ar -9.419510e-01 0.000000e+00 0.000000e+00
1
Step 451000
Ar -9.329809e-01 0.000000e+00 0.000000e+00
1
Step 452000
Ar -9.271475e-01 0.000000e+00 0.000000e+00
1
Step 453000
Ar -9.261889e-01 0.000000e+00 0.000000e+00
1
Step 454000
Ar -9.340488e-01 0.000000e+00 0.000000e+00
1
Step 455000
Ar -9.316653e-01 0.000000e+00 0.000000e+00
1
Step 456000
Ar -9.125960e-01 0.000000e+00 0.000000e+00
1
Step 457000
Ar -9.216601e-01 0.000000e+00 0.000000e+00
1
Step 458000
Ar -9.184579e-01 0.000000e+00 0.000000e+00
1
Step 459000
Ar -9.229507e-01 0.000000e+00 0.000000e+00
1
Step 460000
Ar -9.189265e-01 0.000000e+00 0.000000e+00
1
Step 461000
Ar -9.801832e-01 0.000000e+00 0.000000e+00
1
Step 462000
Ar -1.035961e+00 0.000000e+00 0.000000e+00
1
Step 463000
Ar -9.089901e-01 0.000000e+00 0.000000e+00
1
Step 464000
Ar -9.057597e-01 0.000000e+00 0.000000e+00
1
Step 465000
Ar -9.100529e-01 0.000000e+00 0.000000e+00
1
Step 466000
Ar -1.127209e+00 0.000000e+00 0.000000e+00
1
Step 467000
Ar -9.256117e-01 0.000000e+00 0.000000e+00
1
Step 468000
Ar -8.755696e-01 0.000000e+00 0.000000e+00
1
Step 469000
Ar -1.049446e+00 0.000000e+00 0.000000e+00
1
Step 470000
Ar -1.026262e+00 0.000000e+00 0.000000e+00
1
Step 471000
Ar -1.074737e+00 0.000000e+00 0.000000e+00
1
Step 472000
Ar -1.069152e+00 0.000000e+00 0.000000e+00
1
Step 473000
Ar -1.077029e+00 0.000000e+00 0.000000e+00
1
Step 474000
Ar -9.819512e-01 0.000000e+00 0.000000e+00
1
Step 475000
Ar -9.540536e-01 0.000000e+00 0.000000e+00
1
Step 476000
Ar -9.262255e-01 0.000000e+00 0.000000e+00
1
Step 477000
Ar -9.263332e-01 0.000000e+00 0.000000e+00
1
Step 478000
Ar -1.074727e+00 0.000000e+00 0.000000e+00
1
Step 479000
Ar -1.070893e+00 0.000000e+00 0.000000e+00
1
Step 480000
Ar -1.077927e+00 0.000000e+00 0.000000e+00
1
Step 481000
Ar -1.085164e+00 0.000000e+00 0.000000e+00
1
Step 482000
Ar -1.087203e+00 0.000000e+00 0.000000e+00
1
Step 483000
Ar -1.086848e+00 0.000000e+00 0.000000e+00
1
Step 484000
Ar -1.085339e+00 0.000000e+00 0.000000e+00
1
Step 485000
Ar -1.090203e+00 0.000000e+00 0.000000e+00
1
Step 486000
Ar -9.006317e-01 0.000000e+00 0.000000e+00
1
Step 487000
Ar -9.019910e-01 0.000000e+00 0.000000e+00
1
Step 488000
Ar -9.022366e-01 0.000000e+00 0.000000e+00
1
Step 489000
Ar -9.011739e-01 0.000000e+00 0.000000e+00
1
Step 490000
Ar -8.992866e-01 0.000000e+00 0.000000e+00
1
Step 491000
Ar -1.007314e+00 0.000000e+00 0.000000e+00
1
Step 492000
Ar -1.013203e+00 0.000000e+00 0.000000e+00
1
Step 493000
Ar -9.385863e-01 0.000000e+00 0.000000e+00
1
Step 494000
Ar -9.375477e-01 0.000000e+00 0.000000e+00
1
Step 495000
Ar -9.381474e-01 0.000000e+00 0.000000e+00
1
Step 496000
Ar -8.930992e-01 0.000000e+00 0.000000e+00
1
Step 497000
Ar -1.068259e+00 0.000000e+00 0.000000e+00
1
Step 498000
Ar -1.003406e+00 0.000000e+00 0.000000e+00
1
Step 499000
Ar -1.068319e+00 0.000000e+00 0.000000e+00
1
Step 500000
Ar -1.067375e+00 0.000000e+00 0.000000e+00
1
Step 501000
Ar -9.876823e-01 0.000000e+00 0.000000e+00
1
Step 502000
Ar -1.008067e+00 0.000000e+00 0.000000e+00
1
Step 503000
Ar -1.006651e+00 0.000000e+00 0.000000e+00
1
Step 504000
Ar -9.245023e-01 0.000000e+00 0.000000e+00
1
Step 505000
Ar -8.865125e-01 0.000000e+00 0.000000e+00
1
Step 506000
Ar -1.233990e+00 0.000000e+00 0.000000e+00
1
Step 507000
Ar -9.458072e-01 0.000000e+00 0.000000e+00
1
Step 508000
Ar -9.871176e-01 0.000000e+00 0.000000e+00
1
Step 509000
Ar -1.021835e+00 0.000000e+00 0.000000e+00
1
Step 510000
Ar -8.678716e-01 0.000000e+00 0.000000e+00
1
Step 511000
Ar -9.292164e-01 0.000000e+00 0.000000e+00
1
Step 512000
Ar -9.291321e-01 0.000000e+00 0.000000e+00
1
Step 513000
Ar -9.931000e-01 0.000000e+00 0.000000e+00
1
Step 514000
Ar -7.504110e-01 0.000000e+00 0.000000e+00
1
Step 515000
Ar -9.053642e-01 0.000000e+00 0.000000e+00
1
Step 516000
Ar -8.222958e-01 0.000000e+00 0.000000e+00
1
Step 517000
Ar -1.097997e+00 0.000000e+00 0.000000e+00
1
Step 518000
Ar -8.911592e-01 0.000000e+00 0.000000e+00
1
Step 519000
Ar -9.388775e-01 0.000000e+00 0.000000e+00
1
Step 520000
Ar -9.268674e-01 0.000000e+00 0.000000e+00
1
Step 521000
Ar -9.200176e-01 0.000000e+00 0.000000e+00
1
Step 522000
Ar -9.196354e-01 0.000000e+00 0.000000e+00
1
Step 523000
Ar -1.096637e+00 0.000000e+00 0.000000e+00
1
Step 524000
Ar -1.010853e+00 0.000000e+00 0.000000e+00
1
Step 525000
Ar -1.047890e+00 0.000000e+00 0.000000e+00
1
Step 526000
Ar -1.118855e+00 0.000000e+00 0.000000e+00
1
Step 527000
Ar -9.094904e-01 0.000000e+00 0.000000e+00
1
Step 528000
Ar -1.112409e+00 0.000000e+00 0.000000e+00
1
Step 529000
Ar -8.275391e-01 0.000000e+00 0.000000e+00
1
Step 530000
Ar -9.012398e-01 0.000000e+00 0.000000e+00
1
Step 531000
Ar -1.020352e+00 0.000000e+00 0.000000e+00
1
Step 532000
Ar -9.079156e-01 0.000000e+00 0.000000e+00
1
Step 533000
Ar -8.600179e-01 0.000000e+00 0.000000e+00
1
Step 534000
Ar -8.093871e-01 0.000000e+00 0.000000e+00
1
Step 535000
Ar -1.021122e+00 0.000000e+00 0.000000e+00
1
Step 536000
Ar -9.267854e-01 0.000000e+00 0.000000e+00
1
Step 537000
Ar -7.114818e-01 0.000000e+00 0.000000e+00
1
Step 538000
Ar -9.196198e-01 0.000000e+00 0.000000e+00
1
Step 539000
Ar -1.014662e+00 0.000000e+00 0.000000e+00
1
Step 540000
Ar -9.978363e-01 0.000000e+00 0.000000e+00
1
Step 541000
Ar -1.099229e+00 0.000000e+00 0.000000e+00
1
Step 542000
Ar -1.100957e+00 0.000000e+00 0.000000e+00
1
Step 543000
Ar -9.880368e-01 0.000000e+00 0.000000e+00
1
Step 544000
Ar -9.899044e-01 0.000000e+00 0.000000e+00
1
Step 545000
Ar -1.136368e+00 0.000000e+00 0.000000e+00
1
Step 546000
Ar -1.157412e+00 0.000000e+00 0.000000e+00
1
Step 547000
Ar -1.043882e+00 0.000000e+00 0.000000e+00
1
Step 548000
Ar -7.814012e-01 0.000000e+00 0.000000e+00
1
Step 549000
Ar -7.371420e-01 0.000000e+00 0.000000e+00
1
Step 550000
Ar -9.592967e-01 0.000000e+00 0.000000e+00
1
Step 551000
Ar -9.285186e-01 0.000000e+00 0.000000e+00
1
Step 552000
Ar -8.494702e-01 0.000000e+00 0.000000e+00
1
Step 553000
Ar -1.079752e+00 0.000000e+00 0.000000e+00
1
Step 554000
Ar -8.747717e-01 0.000000e+00 0.000000e+00
1
Step 555000
Ar -1.131148e+00 0.000000e+00 0.000000e+00
1
Step 556000
Ar -1.145962e+00 0.000000e+00 0.000000e+00
1
Step 557000
Ar -1.147436e+00 0.000000e+00 0.000000e+00
1
Step 558000
Ar -1.144104e+00 0.000000e+00 0.000000e+00
1
Step 559000
Ar -1.142459e+00 0.000000e+00 0.000000e+00
1
Step 560000
Ar -1.066604e+00 0.000000e+00 0.000000e+00
1
Step 561000
Ar -1.073476e+00 0.000000e+00 0.000000e+00
1
Step 562000
Ar -1.111533e+00 0.000000e+00 0.000000e+00
1
Step 563000
Ar -9.734732e-01 0.000000e+00 0.000000e+00
1
Step 564000
Ar -6.607454e-01 0.000000e+00 0.000000e+00
1
Step 565000
Ar -1.081573e+00 0.000000e+00 0.000000e+00
1
Step 566000
Ar -1.061537e+00 0.000000e+00 0.000000e+00
1
Step 567000
Ar -9.241437e-01 0.000000e+00 0.000000e+00
1
Step 568000
Ar -9.911206e-01 0.000000e+00 0.000000e+00
1
Step 569000
Ar -1.126101e+00 0.000000e+00 0.000000e+00
1
Step 570000
Ar -1.003742e+00 0.000000e+00 0.000000e+00
1
Step 571000
Ar -1.086441e+00 0.000000e+00 0.000000e+00
1
Step 572000
Ar -1.098881e+00 0.000000e+00 0.000000e+00
1
Step 573000
Ar -1.099832e+00 0.000000e+00 0.000000e+00
1
Step 574000
Ar -1.099376e+00 0.000000e+00 0.000000e+00
1
Step 575000
Ar -1.099421e+00 0.000000e+00 0.000000e+00
1
Step 576000
Ar -1.034508e+00 0.000000e+00 0.000000e+00
1
Step 577000
Ar -1.195615e+00 0.000000e+00 0.000000e+00
1
Step 578000
Ar -1.014566e+00 0.000000e+00 0.000000e+00
1
Step 579000
Ar -1.145730e+00 0.000000e+00 0.000000e+00
1
Step 580000
Ar -9.874446e-01 0.000000e+00 0.000000e+00
1
Step 581000
Ar -6.651677e-01 0.000000e+00 0.000000e+00
1
Step 582000
Ar -8.533412e-01 0.000000e+00 0.000000e+00
1
Step 583000
Ar -1.001628e+00 0.000000e+00 0.000000e+00
1
Step 584000
Ar -1.104602e+00 0.000000e+00 0.000000e+00
1
Step 585000
Ar -8.568714e-01 0.000000e+00 0.000000e+00
1
Step 586000
Ar -8.612791e-01 0.000000e+00 0.000000e+00
1
Step 587000
Ar -6.563555e-01 0.000000e+00 0.000000e+00
1
Step 588000
Ar -1.094024e+00 0.000000e+00 0.000000e+00
1
Step 589000
Ar -6.799492e-01 0.000000e+00 0.000000e+00
1
Step 590000
Ar -1.109977e+00 0.000000e+00 0.000000e+00
1
Step 591000
Ar -8.262572e-01 0.000000e+00 0.000000e+00
1
Step 592000
Ar -1.010440e+00 0.000000e+00 0.000000e+00
1
Step 593000
Ar -1.139759e+00 0.000000e+00 0.000000e+00
1
Step 594000
Ar -1.183422e+00 0.000000e+00 0.000000e+00
1
Step 595000
Ar -8.436954e-01 0.000000e+00 0.000000e+00
1
Step 596000
Ar -1.109255e+00 0.000000e+00 0.000000e+00
1
Step 597000
Ar -8.132038e-01 0.000000e+00 0.000000e+00
1
Step 598000
Ar -8.201205e-01 0.000000e+00 0.000000e+00
1
Step 599000
Ar -8.669339e-01 0.000000e+00 0.000000e+00
1
Step 600000
Ar -8.187950e-01 0.000000e+00 0.000000e+00
1
Step 601000
Ar -1.223788e+00 0.000000e+00 0.000000e+00
1
Step 602000
Ar -9.876664e-01 0.000000e+00 0.000000e+00
1
Step 603000
Ar -1.090260e+00 0.000000e+00 0.000000e+00
1
Step 604000
Ar -9.250187e-01 0.000000e+00 0.000000e+00
1
Step 605000
Ar -1.042873e+00 0.000000e+00 0.000000e+00
1
Step 606000
Ar -1.140112e+00 0.000000e+00 0.000000e+00
1
Step 607000
Ar -1.145871e+00 0.000000e+00 0.000000e+00
1
Step 608000
Ar -1.146840e+00 0.000000e+00 0.000000e+00
1
Step 609000
Ar -1.143716e+00 0.000000e+00 0.000000e+00
1
Step 610000
Ar -1.148448e+00 0.000000e+00 0.000000e+00
1
Step 611000
Ar -9.436372e-01 0.000000e+00 0.000000e+00
1
Step 612000
Ar -6.753262e-01 0.000000e+00 0.000000e+00
1
Step 613000
Ar -1.098413e+00 0.000000e+00 0.000000e+00
1
Step 614000
Ar -8.501695e-01 0.000000e+00 0.000000e+00
1
Step 615000
Ar -8.140229e-01 0.000000e+00 0.000000e+00
1
Step 616000
Ar -6.089998e-01 0.000000e+00 0.000000e+00
1
Step 617000
Ar -9.198073e-01 0.000000e+00 0.000000e+00
1
Step 618000
Ar -9.186808e-01 0.000000e+00 0.000000e+00
1
Step 619000
Ar -8.232698e-01 0.000000e+00 0.000000e+00
1
Step 620000
Ar -9.101310e-01 0.000000e+00 0.000000e+00
1
Step 621000
Ar -1.045123e+00 0.000000e+00 0.000000e+00
1
Step 622000
Ar -1.042269e+00 0.000000e+00 0.000000e+00
1
Step 623000
Ar -7.987382e-01 0.000000e+00 0.000000e+00
1
Step 624000
Ar -8.042738e-01 0.000000e+00 0.000000e+00
1
Step 625000
Ar -8.043541e-01 0.000000e+00 0.000000e+00
1
Step 626000
Ar -8.819803e-01 0.000000e+00 0.000000e+00
1
Step 627000
Ar -9.779882e-01 0.000000e+00 0.000000e+00
1
Step 628000
Ar -8.718068e-01 0.000000e+00 0.000000e+00
1
Step 629000
Ar -1.059934e+00 0.000000e+00 0.000000e+00
1
Step 630000
Ar -1.007603e+00 0.000000e+00 0.000000e+00
1
Step 631000
Ar -8.708810e-01 0.000000e+00 0.000000e+00
1
Step 632000
Ar -7.455243e-01 0.000000e+00 0.000000e+00
1
Step 633000
Ar -7.900815e-01 0.000000e+00 0.000000e+00
1
Step 634000
Ar -1.115715e+00 0.000000e+00 0.000000e+00
1
Step 635000
Ar -1.117584e+00 0.000000e+00 0.000000e+00
1
Step 636000
Ar -1.200412e+00 0.000000e+00 0.000000e+00
1
Step 637000
Ar -8.602759e-01 0.000000e+00 0.000000e+00
1
Step 638000
Ar -1.006697e+00 0.000000e+00 0.000000e+00
1
Step 639000
Ar -9.452632e-01 0.000000e+00 0.000000e+00
1
Step 640000
Ar -1.011114e+00 0.000000e+00 0.000000e+00
1
Step 641000
Ar -1.231233e+00 0.000000e+00 0.000000e+00
1
Step 642000
Ar -7.527953e-01 0.000000e+00 0.000000e+00
1
Step 643000
Ar 1.121348e+00 0.000000e+00 0.000000e+00
1
Step 644000
Ar 1.073371e+00 0.000000e+00 0.000000e+00
1
Step 645000
Ar 9.378838e-01 0.000000e+00 0.000000e+00
1
Step 646000
Ar 9.423489e-01 0.000000e+00 0.000000e+00
1
Step 647000
Ar 7.654885e-01 0.000000e+00 0.000000e+00
1
Step 648000
Ar 7.580976e-01 0.000000e+00 0.000000e+00
1
Step 649000
Ar 7.564045e-01 0.000000e+00 0.000000e+00
1
Step 650000
Ar 7.593677e-01 0.000000e+00 0.000000e+00
1
Step 651000