1
Step 120000
Ar 9.790847e-01 0.000000e+00 0.000000e+00
1
Step 121000
Ar 9.919047e-01 0.000000e+00 0.000000e+00
1
Step 122000
Ar 9.960173e-01 0.000000e+00 0.000000e+00
1
Step 123000
Ar 9.903461e-01 0.000000e+00 0.000000e+00
1
Step 124000
Ar 1.002266e+00 0.000000e+00 0.000000e+00
1
Step 125000
Ar 1.011523e+00 0.000000e+00 0.000000e+00
1
Step 126000
Ar 1.027893e+00 0.000000e+00 0.000000e+00
1
Step 127000
Ar 1.031877e+00 0.000000e+00 0.000000e+00
1
Step 128000
Ar 1.030648e+00 0.000000e+00 0.000000e+00
1
Step 129000
Ar 9.832112e-01 0.000000e+00 0.000000e+00
1
Step 130000
Ar 9.922966e-01 0.000000e+00 0.000000e+00
1
Step 131000
Ar 9.869138e-01 0.000000e+00 0.000000e+00
1
Step 132000
Ar 9.961292e-01 0.000000e+00 0.000000e+00
1
Step 133000
Ar 9.817286e-01 0.000000e+00 0.000000e+00
1
Step 134000
Ar 9.920722e-01 0.000000e+00 0.000000e+00
1
Step 135000
Ar 9.906188e-01 0.000000e+00 0.000000e+00
1
Step 136000
Ar 9.536368e-01 0.000000e+00 0.000000e+00
1
Step 137000
Ar 9.664001e-01 0.000000e+00 0.000000e+00
1
Step 138000
Ar 9.681334e-01 0.000000e+00 0.000000e+00
1
Step 139000
Ar 9.404553e-01 0.000000e+00 0.000000e+00
1
Step 140000
Ar 9.543813e-01 0.000000e+00 0.000000e+00
1
Step 141000
Ar 1.038318e+00 0.000000e+00 0.000000e+00
1
Step 142000
Ar 1.044595e+00 0.000000e+00 0.000000e+00
1
Step 143000
Ar 1.048266e+00 0.000000e+00 0.000000e+00
1
Step 144000
Ar 1.037684e+00 0.000000e+00 0.000000e+00
1
Step 145000
Ar 1.045930e+00 0.000000e+00 0.000000e+00
1
Step 146000
Ar 1.039297e+00 0.000000e+00 0.000000e+00
1
Step 147000
Ar 1.042969e+00 0.000000e+00 0.000000e+00
1
Step 148000
Ar 1.036923e+00 0.000000e+00 0.000000e+00
1
Step 149000
Ar 1.069688e+00 0.000000e+00 0.000000e+00
1
Step 150000
Ar 1.070091e+00 0.000000e+00 0.000000e+00
1
Step 151000
Ar 1.063390e+00 0.000000e+00 0.000000e+00
1
Step 152000
Ar 1.012915e+00 0.000000e+00 0.000000e+00
1
Step 153000
Ar 1.049315e+00 0.000000e+00 0.000000e+00
1
Step 154000
Ar 9.435040e-01 0.000000e+00 0.000000e+00
1
Step 155000
Ar 1.036199e+00 0.000000e+00 0.000000e+00
1
Step 156000
Ar 9.912945e-01 0.000000e+00 0.000000e+00
1
Step 157000
Ar 9.287822e-01 0.000000e+00 0.000000e+00
1
Step 158000
Ar 9.252424e-01 0.000000e+00 0.000000e+00
1
Step 159000
Ar 9.154390e-01 0.000000e+00 0.000000e+00
1
Step 160000
Ar 9.239059e-01 0.000000e+00 0.000000e+00
1
Step 161000
Ar 9.179439e-01 0.000000e+00 0.000000e+00
1
Step 162000
Ar 9.260960e-01 0.000000e+00 0.000000e+00
1
Step 163000
Ar 1.072602e+00 0.000000e+00 0.000000e+00
1
Step 164000
Ar 1.072134e+00 0.000000e+00 0.000000e+00
1
Step 165000
Ar 1.067299e+00 0.000000e+00 0.000000e+00
1
Step 166000
Ar 1.072302e+00 0.000000e+00 0.000000e+00
1
Step 167000
Ar 1.035479e+00 0.000000e+00 0.000000e+00
1
Step 168000
Ar 1.077895e+00 0.000000e+00 0.000000e+00
1
Step 169000
Ar 1.070148e+00 0.000000e+00 0.000000e+00
1
Step 170000
Ar 1.065633e+00 0.000000e+00 0.000000e+00
1
Step 171000
Ar 9.545781e-01 0.000000e+00 0.000000e+00
1
Step 172000
Ar 9.737746e-01 0.000000e+00 0.000000e+00
1
Step 173000
Ar 9.395159e-01 0.000000e+00 0.000000e+00
1
Step 174000
Ar 1.002773e+00 0.000000e+00 0.000000e+00
1
Step 175000
Ar 9.873191e-01 0.000000e+00 0.000000e+00
1
Step 176000
Ar 9.926080e-01 0.000000e+00 0.000000e+00
1
Step 177000
Ar 1.022890e+00 0.000000e+00 0.000000e+00
1
Step 178000
Ar 9.661337e-01 0.000000e+00 0.000000e+00
1
Step 179000
Ar 8.661936e-01 0.000000e+00 0.000000e+00
1
Step 180000
Ar 8.682771e-01 0.000000e+00 0.000000e+00
1
Step 181000
Ar 8.640166e-01 0.000000e+00 0.000000e+00
1
Step 182000
Ar 9.257271e-01 0.000000e+00 0.000000e+00
1
Step 183000
Ar 9.668475e-01 0.000000e+00 0.000000e+00
1
Step 184000
Ar 9.317459e-01 0.000000e+00 0.000000e+00
1
Step 185000
Ar 1.082625e+00 0.000000e+00 0.000000e+00
1
Step 186000
Ar 1.079572e+00 0.000000e+00 0.000000e+00
1
Step 187000
Ar 1.083127e+00 0.000000e+00 0.000000e+00
1
Step 188000
Ar 1.078140e+00 0.000000e+00 0.000000e+00
1
Step 189000
Ar 9.841131e-01 0.000000e+00 0.000000e+00
1
Step 190000
Ar 1.018419e+00 0.000000e+00 0.000000e+00
1
Step 191000
Ar 1.090818e+00 0.000000e+00 0.000000e+00
1
Step 192000
Ar 1.088312e+00 0.000000e+00 0.000000e+00
1
Step 193000
Ar 1.091249e+00 0.000000e+00 0.000000e+00
1
Step 194000
Ar 1.029509e+00 0.000000e+00 0.000000e+00
1
Step 195000
Ar 9.453484e-01 0.000000e+00 0.000000e+00
1
Step 196000
Ar 1.105382e+00 0.000000e+00 0.000000e+00
1
Step 197000
Ar 1.021821e+00 0.000000e+00 0.000000e+00
1
Step 198000
Ar 9.895761e-01 0.000000e+00 0.000000e+00
1
Step 199000
Ar 9.053059e-01 0.000000e+00 0.000000e+00
1
Step 200000
Ar 9.026517e-01 0.000000e+00 0.000000e+00
1
Step 201000
Ar 9.020277e-01 0.000000e+00 0.000000e+00
1
Step 202000
Ar 1.139581e+00 0.000000e+00 0.000000e+00
1
Step 203000
Ar 9.715556e-01 0.000000e+00 0.000000e+00
1
Step 204000
Ar 8.879033e-01 0.000000e+00 0.000000e+00
1
Step 205000
Ar 9.352069e-01 0.000000e+00 0.000000e+00
1
Step 206000
Ar 9.243696e-01 0.000000e+00 0.000000e+00
1
Step 207000
Ar 1.038256e+00 0.000000e+00 0.000000e+00
1
Step 208000
Ar 9.751275e-01 0.000000e+00 0.000000e+00
1
Step 209000
Ar 9.630530e-01 0.000000e+00 0.000000e+00
1
Step 210000
Ar 9.363756e-01 0.000000e+00 0.000000e+00
1
Step 211000
Ar 9.653935e-01 0.000000e+00 0.000000e+00
1
Step 212000
Ar 1.144915e+00 0.000000e+00 0.000000e+00
1
Step 213000
Ar 1.067295e+00 0.000000e+00 0.000000e+00
1
Step 214000
Ar 9.827334e-01 0.000000e+00 0.000000e+00
1
Step 215000
Ar 1.100110e+00 0.000000e+00 0.000000e+00
1
Step 216000
Ar 9.269848e-01 0.000000e+00 0.000000e+00
1
Step 217000
Ar 8.688106e-01 0.000000e+00 0.000000e+00
1
Step 218000
Ar 8.564519e-01 0.000000e+00 0.000000e+00
1
Step 219000
Ar 8.612821e-01 0.000000e+00 0.000000e+00
1
Step 220000
Ar 8.598344e-01 0.000000e+00 0.000000e+00
1
Step 221000
Ar 8.587484e-01 0.000000e+00 0.000000e+00
1
Step 222000
Ar 8.559694e-01 0.000000e+00 0.000000e+00
1
Step 223000
Ar 8.588710e-01 0.000000e+00 0.000000e+00
1
Step 224000
Ar 8.576560e-01 0.000000e+00 0.000000e+00
1
Step 225000
Ar 1.063359e+00 0.000000e+00 0.000000e+00
1
Step 226000
Ar 9.451613e-01 0.000000e+00 0.000000e+00
1
Step 227000
Ar 9.792456e-01 0.000000e+00 0.000000e+00
1
Step 228000
Ar 1.088363e+00 0.000000e+00 0.000000e+00
1
Step 229000
Ar 1.087445e+00 0.000000e+00 0.000000e+00
1
Step 230000
Ar 1.086624e+00 0.000000e+00 0.000000e+00
1
Step 231000
Ar 1.089105e+00 0.000000e+00 0.000000e+00
1
Step 232000
Ar 1.090596e+00 0.000000e+00 0.000000e+00
1
Step 233000
Ar 1.086813e+00 0.000000e+00 0.000000e+00
1
Step 234000
Ar 9.746516e-01 0.000000e+00 0.000000e+00
1
Step 235000
Ar 1.033773e+00 0.000000e+00 0.000000e+00
1
Step 236000
Ar 8.425762e-01 0.000000e+00 0.000000e+00
1
Step 237000
Ar 1.051371e+00 0.000000e+00 0.000000e+00
1
Step 238000
Ar 9.027029e-01 0.000000e+00 0.000000e+00
1
Step 239000
Ar 9.037089e-01 0.000000e+00 0.000000e+00
1
Step 240000
Ar 9.875486e-01 0.000000e+00 0.000000e+00
1
Step 241000
Ar 1.095274e+00 0.000000e+00 0.000000e+00
1
Step 242000
Ar 1.015845e+00 0.000000e+00 0.000000e+00
1
Step 243000
Ar 9.036256e-01 0.000000e+00 0.000000e+00
1
Step 244000
Ar 1.075365e+00 0.000000e+00 0.000000e+00
1
Step 245000
Ar 1.075273e+00 0.000000e+00 0.000000e+00
1
Step 246000
Ar 8.635127e-01 0.000000e+00 0.000000e+00
1
Step 247000
Ar 9.294402e-01 0.000000e+00 0.000000e+00
1
Step 248000
Ar 9.212521e-01 0.000000e+00 0.000000e+00
1
Step 249000
Ar 9.336485e-01 0.000000e+00 0.000000e+00
1
Step 250000
Ar 9.896357e-01 0.000000e+00 0.000000e+00
1
Step 251000
Ar 1.108103e+00 0.000000e+00 0.000000e+00
1
Step 252000
Ar 1.094219e+00 0.000000e+00 0.000000e+00
1
Step 253000
Ar 1.052854e+00 0.000000e+00 0.000000e+00
1
Step 254000
Ar 8.835903e-01 0.000000e+00 0.000000e+00
1
Step 255000
Ar 9.996531e-01 0.000000e+00 0.000000e+00
1
Step 256000
Ar 1.103947e+00 0.000000e+00 0.000000e+00
1
Step 257000
Ar 7.248491e-01 0.000000e+00 0.000000e+00
1
Step 258000
Ar 1.002048e+00 0.000000e+00 0.000000e+00
1
Step 259000
Ar 6.055869e-01 0.000000e+00 0.000000e+00
1
Step 260000
Ar 9.296280e-01 0.000000e+00 0.000000e+00
1
Step 261000
Ar 9.772231e-01 0.000000e+00 0.000000e+00
1
Step 262000
Ar 1.037224e+00 0.000000e+00 0.000000e+00
1
Step 263000
Ar 1.139305e+00 0.000000e+00 0.000000e+00
1
Step 264000
Ar 8.591560e-01 0.000000e+00 0.000000e+00
1
Step 265000
Ar 8.599407e-01 0.000000e+00 0.000000e+00
1
Step 266000
Ar 8.597704e-01 0.000000e+00 0.000000e+00
1
Step 267000
Ar 1.040597e+00 0.000000e+00 0.000000e+00
1
Step 268000
Ar 9.252020e-01 0.000000e+00 0.000000e+00
1
Step 269000
Ar 8.471127e-01 0.000000e+00 0.000000e+00
1
Step 270000
Ar 9.333339e-01 0.000000e+00 0.000000e+00
1
Step 271000
Ar 9.258810e-01 0.000000e+00 0.000000e+00
1
Step 272000
Ar 1.097022e+00 0.000000e+00 0.000000e+00
1
Step 273000
Ar 9.098825e-01 0.000000e+00 0.000000e+00
1
Step 274000
Ar 9.894917e-01 0.000000e+00 0.000000e+00
1
Step 275000
Ar 9.252051e-01 0.000000e+00 0.000000e+00
1
Step 276000
Ar 1.109343e+00 0.000000e+00 0.000000e+00
1
Step 277000
Ar 9.265522e-01 0.000000e+00 0.000000e+00
1
Step 278000
Ar 8.597436e-01 0.000000e+00 0.000000e+00
1
Step 279000
Ar 7.654213e-01 0.000000e+00 0.000000e+00
1
Step 280000
Ar 7.614339e-01 0.000000e+00 0.000000e+00
1
Step 281000
Ar 9.269877e-01 0.000000e+00 0.000000e+00
1
Step 282000
Ar 8.926593e-01 0.000000e+00 0.000000e+00
1
Step 283000
Ar 1.113380e+00 0.000000e+00 0.000000e+00
1
Step 284000
Ar 8.915273e-01 0.000000e+00 0.000000e+00
1
Step 285000
Ar 8.942523e-01 0.000000e+00 0.000000e+00
1
Step 286000
Ar 1.015007e+00 0.000000e+00 0.000000e+00
1
Step 287000
Ar 1.121610e+00 0.000000e+00 0.000000e+00
1
Step 288000
Ar 1.119091e+00 0.000000e+00 0.000000e+00
1
Step 289000
Ar 1.121562e+00 0.000000e+00 0.000000e+00
1
Step 290000
Ar 1.117091e+00 0.000000e+00 0.000000e+00
1
Step 291000
Ar 1.117782e+00 0.000000e+00 0.000000e+00
1
Step 292000
Ar 7.756307e-01 0.000000e+00 0.000000e+00
1
Step 293000
Ar 9.639538e-01 0.000000e+00 0.000000e+00
1
Step 294000
Ar 7.878856e-01 0.000000e+00 0.000000e+00
1
Step 295000
Ar 9.857786e-01 0.000000e+00 0.000000e+00
1
Step 296000
Ar 1.071421e+00 0.000000e+00 0.000000e+00
1
Step 297000
Ar 1.124425e+00 0.000000e+00 0.000000e+00
1
Step 298000
Ar 8.534277e-01 0.000000e+00 0.000000e+00
1
Step 299000
Ar 9.721732e-01 0.000000e+00 0.000000e+00
1
Step 300000
Ar 9.057205e-01 0.000000e+00 0.000000e+00
1
Step 301000
Ar 1.106609e+00 0.000000e+00 0.000000e+00
1
Step 302000
Ar 9.043978e-01 0.000000e+00 0.000000e+00
1
Step 303000
Ar 1.042864e+00 0.000000e+00 0.000000e+00
1
Step 304000
Ar 8.215589e-01 0.000000e+00 0.000000e+00
1
Step 305000
Ar 8.266664e-01 0.000000e+00 0.000000e+00
1
Step 306000
Ar 1.208730e+00 0.000000e+00 0.000000e+00
1
Step 307000
Ar 1.002126e+00 0.000000e+00 0.000000e+00
1
Step 308000
Ar 9.311204e-01 0.000000e+00 0.000000e+00
1
Step 309000
Ar 6.556410e-01 0.000000e+00 0.000000e+00
1
Step 310000
Ar 9.528108e-01 0.000000e+00 0.000000e+00
1
Step 311000
Ar 9.866260e-01 0.000000e+00 0.000000e+00
1
Step 312000
Ar 1.018689e+00 0.000000e+00 0.000000e+00
1
Step 313000
Ar 8.895391e-01 0.000000e+00 0.000000e+00
1
Step 314000
Ar 8.920301e-01 0.000000e+00 0.000000e+00
1
Step 315000
Ar 8.925290e-01 0.000000e+00 0.000000e+00
1
Step 316000
Ar 8.951352e-01 0.000000e+00 0.000000e+00
1
Step 317000
Ar 6.770977e-01 0.000000e+00 0.000000e+00
1
Step 318000
Ar 1.029546e+00 0.000000e+00 0.000000e+00
1
Step 319000
Ar 1.026712e+00 0.000000e+00 0.000000e+00
1
Step 320000
Ar 1.085689e+00 0.000000e+00 0.000000e+00
1
Step 321000
Ar 8.401461e-01 0.000000e+00 0.000000e+00
1
Step 322000
Ar 8.249409e-01 0.000000e+00 0.000000e+00
1
Step 323000
Ar 5.987699e-01 0.000000e+00 0.000000e+00
1
Step 324000
Ar 9.489052e-01 0.000000e+00 0.000000e+00
1
Step 325000
Ar 9.660578e-01 0.000000e+00 0.000000e+00
1
Step 326000
Ar 8.292581e-01 0.000000e+00 0.000000e+00
1
Step 327000
Ar 8.923935e-01 0.000000e+00 0.000000e+00
1
Step 328000
Ar 9.727698e-01 0.000000e+00 0.000000e+00
1
Step 329000
Ar 1.002801e+00 0.000000e+00 0.000000e+00
1
Step 330000
Ar 8.906202e-01 0.000000e+00 0.000000e+00
1
Step 331000
Ar 9.713370e-01 0.000000e+00 0.000000e+00
1
Step 332000
Ar 1.018030e+00 0.000000e+00 0.000000e+00
1
Step 333000
Ar 1.040628e+00 0.000000e+00 0.000000e+00
1
Step 334000
Ar 9.892108e-01 0.000000e+00 0.000000e+00
1
Step 335000
Ar 9.466689e-01 0.000000e+00 0.000000e+00
1
Step 336000
Ar 1.133546e+00 0.000000e+00 0.000000e+00
1
Step 337000
Ar 9.126366e-01 0.000000e+00 0.000000e+00
1
Step 338000
Ar 9.159196e-01 0.000000e+00 0.000000e+00
1
Step 339000
Ar 1.000527e+00 0.000000e+00 0.000000e+00
1
Step 340000
Ar 1.052501e+00 0.000000e+00 0.000000e+00
1
Step 341000
Ar 1.174708e+00 0.000000e+00 0.000000e+00
1
Step 342000
Ar 1.108498e+00 0.000000e+00 0.000000e+00
1
Step 343000
Ar 1.036659e+00 0.000000e+00 0.000000e+00
1
Step 344000
Ar 9.659691e-01 0.000000e+00 0.000000e+00
1
Step 345000
Ar 9.957415e-01 0.000000e+00 0.000000e+00
1
Step 346000
Ar 1.109125e+00 0.000000e+00 0.000000e+00
1
Step 347000
Ar 1.077835e+00 0.000000e+00 0.000000e+00
1
Step 348000
Ar 1.032503e+00 0.000000e+00 0.000000e+00
1
Step 349000
Ar 7.046448e-01 0.000000e+00 0.000000e+00
1
Step 350000
Ar 1.186028e+00 0.000000e+00 0.000000e+00
1
Step 351000
Ar 8.171130e-01 0.000000e+00 0.000000e+00
1
Step 352000
Ar 7.685408e-01 0.000000e+00 0.000000e+00
1
Step 353000
Ar 1.036957e+00 0.000000e+00 0.000000e+00
1
Step 354000
Ar 9.966243e-01 0.000000e+00 0.000000e+00
1
Step 355000
Ar 1.128268e+00 0.000000e+00 0.000000e+00
1
Step 356000
Ar 1.203708e+00 0.000000e+00 0.000000e+00
1
Step 357000
Ar 7.471161e-01 0.000000e+00 0.000000e+00
1
Step 358000
Ar 9.895768e-01 0.000000e+00 0.000000e+00
1
Step 359000
Ar 1.032095e+00 0.000000e+00 0.000000e+00
1
Step 360000
Ar 1.051411e+00 0.000000e+00 0.000000e+00
1
Step 361000
Ar 1.014773e+00 0.000000e+00 0.000000e+00
1
Step 362000
Ar 9.897043e-01 0.000000e+00 0.000000e+00
1
Step 363000
Ar 9.107827e-01 0.000000e+00 0.000000e+00
1
Step 364000
Ar 1.131474e+00 0.000000e+00 0.000000e+00
1
Step 365000
Ar 1.196543e+00 0.000000e+00 0.000000e+00
1
Step 366000
Ar 9.630365e-01 0.000000e+00 0.000000e+00
1
Step 367000
Ar 9.500743e-01 0.000000e+00 0.000000e+00
1
Step 368000
Ar 8.437601e-01 0.000000e+00 0.000000e+00
1
Step 369000
Ar 8.240009e-01 0.000000e+00 0.000000e+00
1
Step 370000
Ar 8.181494e-01 0.000000e+00 0.000000e+00
1
Step 371000
Ar 8.122431e-01 0.000000e+00 0.000000e+00
1
Step 372000
Ar 8.124455e-01 0.000000e+00 0.000000e+00
1
Step 373000
Ar 8.138242e-01 0.000000e+00 0.000000e+00
1
Step 374000
Ar 8.086913e-01 0.000000e+00 0.000000e+00
1
Step 375000
Ar 7.444551e-01 0.000000e+00 0.000000e+00
1
Step 376000
Ar 9.428915e-01 0.000000e+00 0.000000e+00
1
Step 377000
Ar 1.027213e+00 0.000000e+00 0.000000e+00
1
Step 378000
Ar 7.701833e-01 0.000000e+00 0.000000e+00
1
Step 379000
Ar 1.007114e+00 0.000000e+00 0.000000e+00
1
Step 380000
Ar 9.385824e-01 0.000000e+00 0.000000e+00
1
Step 381000
Ar 9.303057e-01 0.000000e+00 0.000000e+00
1
Step 382000
Ar 1.038647e+00 0.000000e+00 0.000000e+00
1
Step 383000
Ar 1.011058e+00 0.000000e+00 0.000000e+00
1
Step 384000
Ar 5.480519e-01 0.000000e+00 0.000000e+00
1
Step 385000
Ar 8.817890e-01 0.000000e+00 0.000000e+00
1
Step 386000
Ar 7.920713e-01 0.000000e+00 0.000000e+00
1
Step 387000
Ar 1.085272e+00 0.000000e+00 0.000000e+00
1
Step 388000
Ar 8.889333e-01 0.000000e+00 0.000000e+00
1
Step 389000
Ar 9.470802e-01 0.000000e+00 0.000000e+00
1
Step 390000
Ar 1.016132e+00 0.000000e+00 0.000000e+00
1
Step 391000
Ar 1.117193e+00 0.000000e+00 0.000000e+00
1
Step 392000
Ar 9.715090e-01 0.000000e+00 0.000000e+00
1
Step 393000
Ar 8.017112e-01 0.000000e+00 0.000000e+00
1
Step 394000
Ar 1.035957e+00 0.000000e+00 0.000000e+00
1
Step 395000
Ar 1.052097e+00 0.000000e+00 0.000000e+00
1
Step 396000
Ar 1.133500e+00 0.000000e+00 0.000000e+00
1
Step 397000
Ar 6.939656e-01 0.000000e+00 0.000000e+00
1
Step 398000
Ar 9.894775e-01 0.000000e+00 0.000000e+00
1
Step 399000
Ar 9.575198e-01 0.000000e+00 0.000000e+00
1
Step 400000
Ar 7.392109e-01 0.000000e+00 0.000000e+00
1
Step 401000
Ar 9.381630e-01 0.000000e+00 0.000000e+00
1
Step 402000
Ar 7.502293e-01 0.000000e+00 0.000000e+00
1
Step 403000
Ar 1.150919e+00 0.000000e+00 0.000000e+00
1
Step 404000
Ar 9.932445e-01 0.000000e+00 0.000000e+00
1
Step 405000
Ar 1.164594e+00 0.000000e+00 0.000000e+00
1
Step 406000
Ar 1.043249e+00 0.000000e+00 0.000000e+00
1
Step 407000
Ar 9.795470e-01 0.000000e+00 0.000000e+00
1
Step 408000
Ar 9.633434e-01 0.000000e+00 0.000000e+00
1
Step 409000
Ar 1.030704e+00 0.000000e+00 0.000000e+00
1
Step 410000
Ar 8.893719e-01 0.000000e+00 0.000000e+00
1
Step 411000
Ar 1.150358e+00 0.000000e+00 0.000000e+00
1
Step 412000
Ar 1.120784e+00 0.000000e+00 0.000000e+00
1
Step 413000
Ar 1.152071e+00 0.000000e+00 0.000000e+00
1
Step 414000
Ar 1.197223e+00 0.000000e+00 0.000000e+00
1
Step 415000
Ar 9.329242e-01 0.000000e+00 0.000000e+00
1
Step 416000
Ar 8.863863e-01 0.000000e+00 0.000000e+00
1
Step 417000
Ar 8.749626e-01 0.000000e+00 0.000000e+00
1
Step 418000
Ar 1.032160e+00 0.000000e+00 0.000000e+00
1
Step 419000
Ar 8.610688e-01 0.000000e+00 0.000000e+00
1
Step 420000
Ar 1.007783e+00 0.000000e+00 0.000000e+00
1
Step 421000
Ar 1.035138e+00 0.000000e+00 0.000000e+00
1
Step 422000
Ar 1.111808e+00 0.000000e+00 0.000000e+00
1
Step 423000
Ar 1.118972e+00 0.000000e+00 0.000000e+00
1
Step 424000
Ar 1.055627e+00 0.000000e+00 0.000000e+00
1
Step 425000
Ar 8.409930e-01 0.000000e+00 0.000000e+00
1
Step 426000
Ar 9.053941e-01 0.000000e+00 0.000000e+00
1
Step 427000
Ar 9.025413e-01 0.000000e+00 0.000000e+00
1
Step 428000
Ar 9.024914e-01 0.000000e+00 0.000000e+00
1
Step 429000
Ar 7.435808e-01 0.000000e+00 0.000000e+00
1
Step 430000
Ar 8.542660e-01 0.000000e+00 0.000000e+00
1
Step 431000
Ar 1.027133e+00 0.000000e+00 0.000000e+00
1
Step 432000
Ar 8.495332e-01 0.000000e+00 0.000000e+00
1
Step 433000
Ar 1.076861e+00 0.000000e+00 0.000000e+00
1
Step 434000
Ar 9.503247e-01 0.000000e+00 0.000000e+00
1
Step 435000
Ar 9.070450e-01 0.000000e+00 0.000000e+00
1
Step 436000
Ar 7.233335e-01 0.000000e+00 0.000000e+00
1
Step 437000
Ar 9.060115e-01 0.000000e+00 0.000000e+00
1
Step 438000
Ar 8.992693e-01 0.000000e+00 0.000000e+00
1
Step 439000
Ar 9.073292e-01 0.000000e+00 0.000000e+00
1
Step 440000
Ar 9.027917e-01 0.000000e+00 0.000000e+00
1
Step 441000
Ar 9.120936e-01 0.000000e+00 0.000000e+00
1
Step 442000
Ar 9.058190e-01 0.000000e+00 0.000000e+00
1
Step 443000
Ar 9.142409e-01 0.000000e+00 0.000000e+00
1
Step 444000
Ar 9.052159e-01 0.000000e+00 0.000000e+00
1
Step 445000
Ar 9.048542e-01 0.000000e+00 0.000000e+00
1
Step 446000
Ar 1.036827e+00 0.000000e+00 0.000000e+00
1
Step 447000
Ar 7.913834e-01 0.000000e+00 0.000000e+00
1
Step 448000
Ar 1.148316e+00 0.000000e+00 0.000000e+00
1
Step 449000
Ar 1.266610e+00 0.000000e+00 0.000000e+00
1
Step 450000
Ar 1.024231e+00 0.000000e+00 0.000000e+00
1
Step 451000
Ar 9.643888e-01 0.000000e+00 0.000000e+00
1
Step 452000
Ar 9.053132e-01 0.000000e+00 0.000000e+00
1
Step 453000
Ar 9.056628e-01 0.000000e+00 0.000000e+00
1
Step 454000
Ar 9.100335e-01 0.000000e+00 0.000000e+00
1
Step 455000
Ar 9.097111e-01 0.000000e+00 0.000000e+00
1
Step 456000
Ar 9.066599e-01 0.000000e+00 0.000000e+00
1
Step 457000
Ar 9.056673e-01 0.000000e+00 0.000000e+00
1
Step 458000
Ar 1.038329e+00 0.000000e+00 0.000000e+00
1
Step 459000
Ar 1.096027e+00 0.000000e+00 0.000000e+00
1
Step 460000
Ar 9.021730e-01 0.000000e+00 0.000000e+00
1
Step 461000
Ar 9.039879e-01 0.000000e+00 0.000000e+00
1
Step 462000
Ar 9.040386e-01 0.000000e+00 0.000000e+00
1
Step 463000
Ar 9.061586e-01 0.000000e+00 0.000000e+00
1
Step 464000
Ar 9.063858e-01 0.000000e+00 0.000000e+00
1
Step 465000
Ar 9.040937e-01 0.000000e+00 0.000000e+00
1
Step 466000
Ar 7.156018e-01 0.000000e+00 0.000000e+00
1
Step 467000
Ar 9.169771e-01 0.000000e+00 0.000000e+00
1
Step 468000
Ar 1.035039e+00 0.000000e+00 0.000000e+00
1
Step 469000
Ar 6.888882e-01 0.000000e+00 0.000000e+00
1
Step 470000
Ar 9.152927e-01 0.000000e+00 0.000000e+00
1
Step 471000
Ar 8.947541e-01 0.000000e+00 0.000000e+00
1
Step 472000
Ar 1.143367e+00 0.000000e+00 0.000000e+00
1
Step 473000
Ar 1.008344e+00 0.000000e+00 0.000000e+00
1
Step 474000
Ar 8.321933e-01 0.000000e+00 0.000000e+00
1
Step 475000
Ar 8.683575e-01 0.000000e+00 0.000000e+00
1
Step 476000
Ar 7.428404e-01 0.000000e+00 0.000000e+00
1
Step 477000
Ar 9.018644e-01 0.000000e+00 0.000000e+00
1
Step 478000
Ar 9.774243e-01 0.000000e+00 0.000000e+00
1
Step 479000
Ar 1.110794e+00 0.000000e+00 0.000000e+00
1
Step 480000
Ar 8.578425e-01 0.000000e+00 0.000000e+00
1
Step 481000
Ar 1.091013e+00 0.000000e+00 0.000000e+00
1
Step 482000
Ar 1.203853e+00 0.000000e+00 0.000000e+00
1
Step 483000
Ar 1.105863e+00 0.000000e+00 0.000000e+00
1
Step 484000
Ar 8.072914e-01 0.000000e+00 0.000000e+00
1
Step 485000
Ar 1.160329e+00 0.000000e+00 0.000000e+00
1
Step 486000
Ar 1.131534e+00 0.000000e+00 0.000000e+00
1
Step 487000
Ar 1.230423e+00 0.000000e+00 0.000000e+00
1
Step 488000
Ar 6.530152e-01 0.000000e+00 0.000000e+00
1
Step 489000
Ar 5.694141e-01 0.000000e+00 0.000000e+00
1
Step 490000
Ar 1.015144e+00 0.000000e+00 0.000000e+00
1
Step 491000
Ar 1.016064e+00 0.000000e+00 0.000000e+00
1
Step 492000
Ar 1.157750e+00 0.000000e+00 0.000000e+00
1
Step 493000
Ar 1.186286e+00 0.000000e+00 0.000000e+00
1
Step 494000
Ar -6.052003e-01 0.000000e+00 0.000000e+00
1
Step 495000
Ar -9.919145e-01 0.000000e+00 0.000000e+00
1
Step 496000
Ar -9.752008e-01 0.000000e+00 0.000000e+00
1
Step 497000
Ar -1.005568e+00 0.000000e+00 0.000000e+00
1
Step 498000
Ar -9.883875e-01 0.000000e+00 0.000000e+00
1
Step 499000
Ar -9.935309e-01 0.000000e+00 0.000000e+00
1
Step 500000
Ar -9.813040e-01 0.000000e+00 0.000000e+00
1
Step 501000
Ar -9.738491e-01 0.000000e+00 0.000000e+00
1
Step 502000
Ar -9.722592e-01 0.000000e+00 0.000000e+00
1
Step 503000
Ar -9.757710e-01 0.000000e+00 0.000000e+00
1
Step 504000
Ar -9.647362e-01 0.000000e+00 0.000000e+00
1
Step 505000
Ar -9.792988e-01 0.000000e+00 0.000000e+00
1
Step 506000
Ar -9.814178e-01 0.000000e+00 0.000000e+00
1
Step 507000
Ar -9.813355e-01 0.000000e+00 0.000000e+00
1
Step 508000
Ar -9.709116e-01 0.000000e+00 0.000000e+00
1
Step 509000
Ar -9.808490e-01 0.000000e+00 0.000000e+00
1
Step 510000
Ar -1.011489e+00 0.000000e+00 0.000000e+00
1
Step 511000
Ar -1.031711e+00 0.000000e+00 0.000000e+00
1
Step 512000
Ar -1.028868e+00 0.000000e+00 0.000000e+00
1
Step 513000
Ar -1.030809e+00 0.000000e+00 0.000000e+00
1
Step 514000
Ar -1.027907e+00 0.000000e+00 0.000000e+00
1
Step 515000
Ar -1.025120e+00 0.000000e+00 0.000000e+00
1
Step 516000
Ar -1.030066e+00 0.000000e+00 0.000000e+00
1
Step 517000
Ar -1.028477e+00 0.000000e+00 0.000000e+00
1
Step 518000
Ar -1.025324e+00 0.000000e+00 0.000000e+00
1
Step 519000
Ar -1.031139e+00 0.000000e+00 0.000000e+00
1
Step 520000
Ar -1.029806e+00 0.000000e+00 0.000000e+00
1
Step 521000
Ar -1.032911e+00 0.000000e+00 0.000000e+00
1
Step 522000
Ar -1.029850e+00 0.000000e+00 0.000000e+00
1
Step 523000
Ar -9.580392e-01 0.000000e+00 0.000000e+00
1
Step 524000
Ar -9.545182e-01 0.000000e+00 0.000000e+00
1
Step 525000
Ar -9.548968e-01 0.000000e+00 0.000000e+00
1
Step 526000
Ar -9.483700e-01 0.000000e+00 0.000000e+00
1
Step 527000
Ar -9.532497e-01 0.000000e+00 0.000000e+00
1
Step 528000
Ar -9.535546e-01 0.000000e+00 0.000000e+00
1
Step 529000
Ar -9.465950e-01 0.000000e+00 0.000000e+00
1
Step 530000
Ar -9.415204e-01 0.000000e+00 0.000000e+00
1
Step 531000
Ar -9.424197e-01 0.000000e+00 0.000000e+00
1
Step 532000
Ar -9.427047e-01 0.000000e+00 0.000000e+00
1
Step 533000
Ar -9.433009e-01 0.000000e+00 0.000000e+00
1
Step 534000
Ar -9.435522e-01 0.000000e+00 0.000000e+00
1
Step 535000
Ar -9.419662e-01 0.000000e+00 0.000000e+00
1
Step 536000
Ar -1.089186e+00 0.000000e+00 0.000000e+00
1
Step 537000
Ar -1.003586e+00 0.000000e+00 0.000000e+00
1
Step 538000
Ar -9.814908e-01 0.000000e+00 0.000000e+00
1
Step 539000
Ar -9.819746e-01 0.000000e+00 0.000000e+00
1
Step 540000
Ar -1.045292e+00 0.000000e+00 0.000000e+00
1
Step 541000
Ar -1.040116e+00 0.000000e+00 0.000000e+00
1
Step 542000
Ar -1.058198e+00 0.000000e+00 0.000000e+00
1
Step 543000
Ar -1.050110e+00 0.000000e+00 0.000000e+00
1
Step 544000
Ar -1.059017e+00 0.000000e+00 0.000000e+00
1
Step 545000
Ar -1.064712e+00 0.000000e+00 0.000000e+00
1
Step 546000
Ar -1.055703e+00 0.000000e+00 0.000000e+00
1
Step 547000
Ar -1.054407e+00 0.000000e+00 0.000000e+00
1
Step 548000
Ar -1.054979e+00 0.000000e+00 0.000000e+00
1
Step 549000
Ar -1.055067e+00 0.000000e+00 0.000000e+00
1
Step 550000
Ar -1.054293e+00 0.000000e+00 0.000000e+00
1
Step 551000
Ar -1.052791e+00 0.000000e+00 0.000000e+00
1
Step 552000
Ar -1.035163e+00 0.000000e+00 0.000000e+00
1
Step 553000
Ar -1.065023e+00 0.000000e+00 0.000000e+00
1
Step 554000
Ar -1.059626e+00 0.000000e+00 0.000000e+00
1
Step 555000
Ar -1.066621e+00 0.000000e+00 0.000000e+00
1
Step 556000
Ar -1.064359e+00 0.000000e+00 0.000000e+00
1
Step 557000
Ar -1.063999e+00 0.000000e+00 0.000000e+00
1
Step 558000
Ar -1.061063e+00 0.000000e+00 0.000000e+00
1
Step 559000
Ar -1.063552e+00 0.000000e+00 0.000000e+00
1
Step 560000
Ar -9.381528e-01 0.000000e+00 0.000000e+00
1
Step 561000
Ar -9.262261e-01 0.000000e+00 0.000000e+00
1
Step 562000
Ar -9.167347e-01 0.000000e+00 0.000000e+00
1
Step 563000
Ar -9.969387e-01 0.000000e+00 0.000000e+00
1
Step 564000
Ar -8.713132e-01 0.000000e+00 0.000000e+00
1
Step 565000
Ar -8.726567e-01 0.000000e+00 0.000000e+00
1
Step 566000
Ar -1.017302e+00 0.000000e+00 0.000000e+00
1
Step 567000
Ar -1.093677e+00 0.000000e+00 0.000000e+00
1
Step 568000
Ar -9.098643e-01 0.000000e+00 0.000000e+00
1
Step 569000
Ar -9.076450e-01 0.000000e+00 0.000000e+00
1
Step 570000
Ar -1.146292e+00 0.000000e+00 0.000000e+00
1
Step 571000
Ar -8.837054e-01 0.000000e+00 0.000000e+00
1
Step 572000
Ar -8.739310e-01 0.000000e+00 0.000000e+00
1
Step 573000
Ar -8.755283e-01 0.000000e+00 0.000000e+00
1
Step 574000
Ar -1.132418e+00 0.000000e+00 0.000000e+00
1
Step 575000
Ar -1.076420e+00 0.000000e+00 0.000000e+00
1
Step 576000
Ar -1.098452e+00 0.000000e+00 0.000000e+00
1
Step 577000
Ar -1.026258e+00 0.000000e+00 0.000000e+00
1
Step 578000
Ar -9.552783e-01 0.000000e+00 0.000000e+00
1
Step 579000
Ar -6.682313e-01 0.000000e+00 0.000000e+00
1
Step 580000
Ar -1.010341e+00 0.000000e+00 0.000000e+00
1
Step 581000
Ar -9.857256e-01 0.000000e+00 0.000000e+00
1
Step 582000
Ar -1.048038e+00 0.000000e+00 0.000000e+00
1
Step 583000
Ar -1.048139e+00 0.000000e+00 0.000000e+00
1
Step 584000
Ar -1.042498e+00 0.000000e+00 0.000000e+00
1
Step 585000
Ar -1.050973e+00 0.000000e+00 0.000000e+00
1
Step 586000
Ar -8.419596e-01 0.000000e+00 0.000000e+00
1
Step 587000
Ar -1.072934e+00 0.000000e+00 0.000000e+00
1
Step 588000
Ar -8.708484e-01 0.000000e+00 0.000000e+00
1
Step 589000
Ar -8.782431e-01 0.000000e+00 0.000000e+00
1
Step 590000
Ar -1.035096e+00 0.000000e+00 0.000000e+00
1
Step 591000
Ar -9.320195e-01 0.000000e+00 0.000000e+00
1
Step 592000
Ar -9.124455e-01 0.000000e+00 0.000000e+00
1
Step 593000
Ar -1.068989e+00 0.000000e+00 0.000000e+00
1
Step 594000
Ar -9.517623e-01 0.000000e+00 0.000000e+00
1
Step 595000
Ar -9.922462e-01 0.000000e+00 0.000000e+00
1
Step 596000
Ar -8.090075e-01 0.000000e+00 0.000000e+00
1
Step 597000
Ar -1.088206e+00 0.000000e+00 0.000000e+00
1
Step 598000
Ar -9.286417e-01 0.000000e+00 0.000000e+00
1
Step 599000
Ar -9.403363e-01 0.000000e+00 0.000000e+00
1
Step 600000
Ar -9.076833e-01 0.000000e+00 0.000000e+00
1
Step 601000
Ar -9.077435e-01 0.000000e+00 0.000000e+00
1
Step 602000
Ar -9.105099e-01 0.000000e+00 0.000000e+00
1
Step 603000
Ar -9.047044e-01 0.000000e+00 0.000000e+00
1
Step 604000
Ar -9.089288e-01 0.000000e+00 0.000000e+00
1
Step 605000
Ar -9.040886e-01 0.000000e+00 0.000000e+00
1
Step 606000
Ar -9.071220e-01 0.000000e+00 0.000000e+00
1
Step 607000
Ar -9.022034e-01 0.000000e+00 0.000000e+00
1
Step 608000
Ar -9.037846e-01 0.000000e+00 0.000000e+00
1
Step 609000
Ar -9.039283e-01 0.000000e+00 0.000000e+00
1
Step 610000
Ar -9.078303e-01 0.000000e+00 0.000000e+00
1
Step 611000
Ar -9.045580e-01 0.000000e+00 0.000000e+00
1
Step 612000
Ar -9.024993e-01 0.000000e+00 0.000000e+00
1
Step 613000
Ar -9.057308e-01 0.000000e+00 0.000000e+00
1
Step 614000
Ar -9.064062e-01 0.000000e+00 0.000000e+00
1
Step 615000
Ar -9.072976e-01 0.000000e+00 0.000000e+00
1
Step 616000
Ar -9.049346e-01 0.000000e+00 0.000000e+00
1
Step 617000
Ar -9.002469e-01 0.000000e+00 0.000000e+00
1
Step 618000
Ar -8.961946e-01 0.000000e+00 0.000000e+00
1
Step 619000
Ar -1.005443e+00 0.000000e+00 0.000000e+00
1
Step 620000
Ar -1.056283e+00 0.000000e+00 0.000000e+00
1
Step 621000
Ar -1.001714e+00 0.000000e+00 0.000000e+00
1
Step 622000
Ar -9.626060e-01 0.000000e+00 0.000000e+00
1
Step 623000
Ar -8.534670e-01 0.000000e+00 0.000000e+00
1
Step 624000
Ar -1.093893e+00 0.000000e+00 0.000000e+00
1
Step 625000
Ar -1.095360e+00 0.000000e+00 0.000000e+00
1
Step 626000
Ar -1.094559e+00 0.000000e+00 0.000000e+00
1
Step 627000
Ar -1.015269e+00 0.000000e+00 0.000000e+00
1
Step 628000
Ar -1.223022e+00 0.000000e+00 0.000000e+00
1
Step 629000
Ar -8.966092e-01 0.000000e+00 0.000000e+00
1
Step 630000
Ar -8.953229e-01 0.000000e+00 0.000000e+00
1
Step 631000
Ar -8.938593e-01 0.000000e+00 0.000000e+00
1
Step 632000
Ar -8.998287e-01 0.000000e+00 0.000000e+00
1
Step 633000
Ar -8.990938e-01 0.000000e+00 0.000000e+00
1
Step 634000
Ar -8.605336e-01 0.000000e+00 0.000000e+00
1
Step 635000
Ar -9.254911e-01 0.000000e+00 0.000000e+00
1
Step 636000
Ar -9.344690e-01 0.000000e+00 0.000000e+00
1
Step 637000
Ar -8.936476e-01 0.000000e+00 0.000000e+00
1
Step 638000
Ar -9.102516e-01 0.000000e+00 0.000000e+00
1
Step 639000
Ar -6.636011e-01 0.000000e+00 0.000000e+00
1
Step 640000
Ar -9.913495e-01 0.000000e+00 0.000000e+00
1
Step 641000
Ar -6.308565e-01 0.000000e+00 0.000000e+00
1
Step 642000
Ar -1.108325e+00 0.000000e+00 0.000000e+00
1
Step 643000
Ar -8.678547e-01 0.000000e+00 0.000000e+00
1
Step 644000
Ar -1.105505e+00 0.000000e+00 0.000000e+00
1
Step 645000
Ar -1.107590e+00 0.000000e+00 0.000000e+00
1
Step 646000
Ar -8.586157e-01 0.000000e+00 0.000000e+00
1
Step 647000
Ar -1.100818e+00 0.000000e+00 0.000000e+00
1
Step 648000
Ar -1.086034e+00 0.000000e+00 0.000000e+00
1
Step 649000
Ar -8.768243e-01 0.000000e+00 0.000000e+00
1
Step 650000
Ar -8.763708e-01 0.000000e+00 0.000000e+00
1
Step 651000
Ar -1.135256e+00 0.000000e+00 0.000000e+00
1
Step 652000