1
Step 0
Ar 4.989988e+00 0.000000e+00 0.000000e+00
1
Step 1000
Ar 4.347321e+00 0.000000e+00 0.000000e+00
1
Step 2000
Ar 2.826222e+00 0.000000e+00 0.000000e+00
1
Step 3000
Ar 7.340482e-01 0.000000e+00 0.000000e+00
1
Step 4000
Ar -1.506449e+00 0.000000e+00 0.000000e+00
1
Step 5000
Ar -3.442549e+00 0.000000e+00 0.000000e+00
1
Step 6000
Ar -4.683038e+00 0.000000e+00 0.000000e+00
1
Step 7000
Ar -4.977259e+00 0.000000e+00 0.000000e+00
1
Step 8000
Ar -4.265762e+00 0.000000e+00 0.000000e+00
1
Step 9000
Ar -2.692314e+00 0.000000e+00 0.000000e+00
1
Step 10000
Ar -5.748489e-01 0.000000e+00 0.000000e+00
1
Step 11000
Ar 1.658772e+00 0.000000e+00 0.000000e+00
1
Step 12000
Ar 3.557216e+00 0.000000e+00 0.000000e+00
1
Step 13000
Ar 4.736880e+00 0.000000e+00 0.000000e+00
1
Step 14000
Ar 4.959397e+00 0.000000e+00 0.000000e+00
1
Step 15000
Ar 4.179804e+00 0.000000e+00 0.000000e+00
1
Step 16000
Ar 2.555629e+00 0.000000e+00 0.000000e+00
1
Step 17000
Ar 4.150567e-01 0.000000e+00 0.000000e+00
1
Step 18000
Ar -1.809383e+00 0.000000e+00 0.000000e+00
1
Step 19000
Ar -3.668214e+00 0.000000e+00 0.000000e+00
1
Step 20000
Ar -4.785836e+00 0.000000e+00 0.000000e+00
1
Step 21000
Ar -4.936419e+00 0.000000e+00 0.000000e+00
1
Step 22000
Ar -4.089535e+00 0.000000e+00 0.000000e+00
1
Step 23000
Ar -2.416309e+00 0.000000e+00 0.000000e+00
1
Step 24000
Ar -2.548363e-01 0.000000e+00 0.000000e+00
1
Step 25000
Ar 1.958129e+00 0.000000e+00 0.000000e+00
1
Step 26000
Ar 3.775429e+00 0.000000e+00 0.000000e+00
1
Step 27000
Ar 4.829856e+00 0.000000e+00 0.000000e+00
1
Step 28000
Ar 4.908349e+00 0.000000e+00 0.000000e+00
1
Step 29000
Ar 3.995047e+00 0.000000e+00 0.000000e+00
1
Step 30000
Ar 2.274496e+00 0.000000e+00 0.000000e+00
1
Step 31000
Ar 9.435311e-02 0.000000e+00 0.000000e+00
1
Step 32000
Ar -2.104855e+00 0.000000e+00 0.000000e+00
1
Step 33000
Ar -3.878750e+00 0.000000e+00 0.000000e+00
1
Step 34000
Ar -4.868894e+00 0.000000e+00 0.000000e+00
1
Step 35000
Ar -4.875216e+00 0.000000e+00 0.000000e+00
1
Step 36000
Ar -3.896439e+00 0.000000e+00 0.000000e+00
1
Step 37000
Ar -2.130337e+00 0.000000e+00 0.000000e+00
1
Step 38000
Ar 6.622742e-02 0.000000e+00 0.000000e+00
1
Step 39000
Ar 2.249409e+00 0.000000e+00 0.000000e+00
1
Step 40000
Ar 3.978069e+00 0.000000e+00 0.000000e+00
1
Step 41000
Ar 4.902910e+00 0.000000e+00 0.000000e+00
1
Step 42000
Ar 4.837055e+00 0.000000e+00 0.000000e+00
1
Step 43000
Ar 3.793812e+00 0.000000e+00 0.000000e+00
1
Step 44000
Ar 1.983980e+00 0.000000e+00 0.000000e+00
1
Step 45000
Ar -2.267396e-01 0.000000e+00 0.000000e+00
1
Step 46000
Ar -2.391644e+00 0.000000e+00 0.000000e+00
1
Step 47000
Ar -4.073286e+00 0.000000e+00 0.000000e+00
1
Step 48000
Ar -4.931869e+00 0.000000e+00 0.000000e+00
1
Step 49000
Ar -4.793905e+00 0.000000e+00 0.000000e+00
1
Step 50000
Ar -3.687271e+00 0.000000e+00 0.000000e+00
1
Step 51000
Ar -1.835577e+00 0.000000e+00 0.000000e+00
1
Step 52000
Ar 3.870180e-01 0.000000e+00 0.000000e+00
1
Step 53000
Ar 2.531412e+00 0.000000e+00 0.000000e+00
1
Step 54000
Ar 4.164301e+00 0.000000e+00 0.000000e+00
1
Step 55000
Ar 4.955741e+00 0.000000e+00 0.000000e+00
1
Step 56000
Ar 4.745810e+00 0.000000e+00 0.000000e+00
1
Step 57000
Ar 3.576927e+00 0.000000e+00 0.000000e+00
1
Step 58000
Ar 1.685281e+00 0.000000e+00 0.000000e+00
1
Step 59000
Ar -5.468971e-01 0.000000e+00 0.000000e+00
1
Step 60000
Ar -2.668568e+00 0.000000e+00 0.000000e+00
1
Step 61000
Ar -4.251021e+00 0.000000e+00 0.000000e+00
1
Step 62000
Ar -4.974501e+00 0.000000e+00 0.000000e+00
1
Step 63000
Ar -4.692820e+00 0.000000e+00 0.000000e+00
1
Step 64000
Ar -3.462894e+00 0.000000e+00 0.000000e+00
1
Step 65000
Ar -1.533247e+00 0.000000e+00 0.000000e+00
1
Step 66000
Ar 7.062122e-01 0.000000e+00 0.000000e+00
1
Step 67000
Ar 2.802972e+00 0.000000e+00 0.000000e+00
1
Step 68000
Ar 4.333356e+00 0.000000e+00 0.000000e+00
1
Step 69000
Ar 4.988130e+00 0.000000e+00 0.000000e+00
1
Step 70000
Ar 4.634989e+00 0.000000e+00 0.000000e+00
1
Step 71000
Ar 3.345289e+00 0.000000e+00 0.000000e+00
1
Step 72000
Ar 1.379631e+00 0.000000e+00 0.000000e+00
1
Step 73000
Ar -8.647988e-01 0.000000e+00 0.000000e+00
1
Step 74000
Ar -2.934485e+00 0.000000e+00 0.000000e+00
1
Step 75000
Ar -4.411222e+00 0.000000e+00 0.000000e+00
1
Step 76000
Ar -4.996615e+00 0.000000e+00 0.000000e+00
1
Step 77000
Ar -4.572378e+00 0.000000e+00 0.000000e+00
1
Step 78000
Ar -3.224234e+00 0.000000e+00 0.000000e+00
1
Step 79000
Ar -1.224592e+00 0.000000e+00 0.000000e+00
1
Step 80000
Ar 1.022493e+00 0.000000e+00 0.000000e+00
1
Step 81000
Ar 3.062972e+00 0.000000e+00 0.000000e+00
1
Step 82000
Ar 4.484537e+00 0.000000e+00 0.000000e+00
1
Step 83000
Ar 4.999945e+00 0.000000e+00 0.000000e+00
1
Step 84000
Ar 4.505050e+00 0.000000e+00 0.000000e+00
1
Step 85000
Ar 3.099853e+00 0.000000e+00 0.000000e+00
1
Step 86000
Ar 1.068291e+00 0.000000e+00 0.000000e+00
1
Step 87000
Ar -1.179133e+00 0.000000e+00 0.000000e+00
1
Step 88000
Ar -3.188299e+00 0.000000e+00 0.000000e+00
1
Step 89000
Ar -4.553227e+00 0.000000e+00 0.000000e+00
1
Step 90000
Ar -4.998119e+00 0.000000e+00 0.000000e+00
1
Step 91000
Ar -4.433076e+00 0.000000e+00 0.000000e+00
1
Step 92000
Ar -2.972274e+00 0.000000e+00 0.000000e+00
1
Step 93000
Ar -9.108867e-01 0.000000e+00 0.000000e+00
1
Step 94000
Ar 1.334557e+00 0.000000e+00 0.000000e+00
1
Step 95000
Ar 3.310337e+00 0.000000e+00 0.000000e+00
1
Step 96000
Ar 4.617221e+00 0.000000e+00 0.000000e+00
1
Step 97000
Ar 4.991137e+00 0.000000e+00 0.000000e+00
1
Step 98000
Ar 4.356530e+00 0.000000e+00 0.000000e+00
1
Step 99000
Ar 2.841630e+00 0.000000e+00 0.000000e+00
