1
Step 120000
Ar 1.105180e+00 0.000000e+00 0.000000e+00
1
Step 121000
Ar 9.752686e-01 0.000000e+00 0.000000e+00
1
Step 122000
Ar 1.139360e+00 0.000000e+00 0.000000e+00
1
Step 123000
Ar 9.950442e-01 0.000000e+00 0.000000e+00
1
Step 124000
Ar 1.112833e+00 0.000000e+00 0.000000e+00
1
Step 125000
Ar 1.015951e+00 0.000000e+00 0.000000e+00
1
Step 126000
Ar 1.057277e+00 0.000000e+00 0.000000e+00
1
Step 127000
Ar 6.490438e-01 0.000000e+00 0.000000e+00
1
Step 128000
Ar 9.463162e-01 0.000000e+00 0.000000e+00
1
Step 129000
Ar 8.951962e-01 0.000000e+00 0.000000e+00
1
Step 130000
Ar 9.313348e-01 0.000000e+00 0.000000e+00
1
Step 131000
Ar 8.482364e-01 0.000000e+00 0.000000e+00
1
Step 132000
Ar 7.881334e-01 0.000000e+00 0.000000e+00
1
Step 133000
Ar 6.886073e-01 0.000000e+00 0.000000e+00
1
Step 134000
Ar 7.745002e-01 0.000000e+00 0.000000e+00
1
Step 135000
Ar 9.206183e-01 0.000000e+00 0.000000e+00
1
Step 136000
Ar 7.628669e-01 0.000000e+00 0.000000e+00
1
Step 137000
Ar 7.504925e-01 0.000000e+00 0.000000e+00
1
Step 138000
Ar 7.441787e-01 0.000000e+00 0.000000e+00
1
Step 139000
Ar 7.368925e-01 0.000000e+00 0.000000e+00
1
Step 140000
Ar 6.760723e-01 0.000000e+00 0.000000e+00
1
Step 141000
Ar 7.157671e-01 0.000000e+00 0.000000e+00
1
Step 142000
Ar 7.240956e-01 0.000000e+00 0.000000e+00
1
Step 143000
Ar 6.373500e-01 0.000000e+00 0.000000e+00
1
Step 144000
Ar 5.273164e-01 0.000000e+00 0.000000e+00
1
Step 145000
Ar 6.155801e-01 0.000000e+00 0.000000e+00
1
Step 146000
Ar 6.642817e-01 0.000000e+00 0.000000e+00
1
Step 147000
Ar 6.289217e-01 0.000000e+00 0.000000e+00
1
Step 148000
Ar 6.026390e-01 0.000000e+00 0.000000e+00
1
Step 149000
Ar 5.444100e-01 0.000000e+00 0.000000e+00
1
Step 150000
Ar 5.824918e-01 0.000000e+00 0.000000e+00
1
Step 151000
Ar 4.712822e-01 0.000000e+00 0.000000e+00
1
Step 152000
Ar 5.005288e-01 0.000000e+00 0.000000e+00
1
Step 153000
Ar 1.264965e-01 0.000000e+00 0.000000e+00
1
Step 154000
Ar -1.195347e+00 0.000000e+00 0.000000e+00
1
Step 155000
Ar -1.118906e+00 0.000000e+00 0.000000e+00
1
Step 156000
Ar -1.010947e+00 0.000000e+00 0.000000e+00
1
Step 157000
Ar -9.603543e-01 0.000000e+00 0.000000e+00
1
Step 158000
Ar -8.696760e-01 0.000000e+00 0.000000e+00
1
Step 159000
Ar -1.050241e+00 0.000000e+00 0.000000e+00
1
Step 160000
Ar -1.071084e+00 0.000000e+00 0.000000e+00
1
Step 161000
Ar -9.509050e-01 0.000000e+00 0.000000e+00
1
Step 162000
Ar -9.350694e-01 0.000000e+00 0.000000e+00
1
Step 163000
Ar -1.167404e+00 0.000000e+00 0.000000e+00
1
Step 164000
Ar -1.099742e+00 0.000000e+00 0.000000e+00
1
Step 165000
Ar -9.728240e-01 0.000000e+00 0.000000e+00
1
Step 166000
Ar -1.157200e+00 0.000000e+00 0.000000e+00
1
Step 167000
Ar -1.110841e+00 0.000000e+00 0.000000e+00
1
Step 168000
Ar -6.817387e-01 0.000000e+00 0.000000e+00
1
Step 169000
Ar -5.873886e-01 0.000000e+00 0.000000e+00
1
Step 170000
Ar -6.385337e-01 0.000000e+00 0.000000e+00
1
Step 171000
Ar -8.522324e-01 0.000000e+00 0.000000e+00
1
Step 172000
Ar -7.131027e-01 0.000000e+00 0.000000e+00
1
Step 173000
Ar -8.217151e-01 0.000000e+00 0.000000e+00
1
Step 174000
Ar -1.033778e+00 0.000000e+00 0.000000e+00
1
Step 175000
Ar -1.022433e+00 0.000000e+00 0.000000e+00
1
Step 176000
Ar -1.057751e+00 0.000000e+00 0.000000e+00
1
Step 177000
Ar -8.839486e-01 0.000000e+00 0.000000e+00
1
Step 178000
Ar -8.903710e-01 0.000000e+00 0.000000e+00
1
Step 179000
Ar -9.109614e-01 0.000000e+00 0.000000e+00
1
Step 180000
Ar -8.984133e-01 0.000000e+00 0.000000e+00
1
Step 181000
Ar -9.847679e-01 0.000000e+00 0.000000e+00
1
Step 182000
Ar -1.002351e+00 0.000000e+00 0.000000e+00
1
Step 183000
Ar -9.273207e-01 0.000000e+00 0.000000e+00
1
Step 184000
Ar -9.168729e-01 0.000000e+00 0.000000e+00
1
Step 185000
Ar -9.932083e-01 0.000000e+00 0.000000e+00
1
Step 186000
Ar -1.138508e+00 0.000000e+00 0.000000e+00
1
Step 187000
Ar -1.129439e+00 0.000000e+00 0.000000e+00
1
Step 188000
Ar -1.084643e+00 0.000000e+00 0.000000e+00
1
Step 189000
Ar -1.074711e+00 0.000000e+00 0.000000e+00
1
Step 190000
Ar -9.410882e-01 0.000000e+00 0.000000e+00
1
Step 191000
Ar -1.042962e+00 0.000000e+00 0.000000e+00
1
Step 192000
Ar -1.033629e+00 0.000000e+00 0.000000e+00
1
Step 193000
Ar -1.176005e+00 0.000000e+00 0.000000e+00
1
Step 194000
Ar -1.214603e+00 0.000000e+00 0.000000e+00
1
Step 195000
Ar -1.179391e+00 0.000000e+00 0.000000e+00
1
Step 196000
Ar -1.205109e+00 0.000000e+00 0.000000e+00
1
Step 197000
Ar -1.262403e+00 0.000000e+00 0.000000e+00
1
Step 198000
Ar -1.231715e+00 0.000000e+00 0.000000e+00
1
Step 199000
Ar -1.395723e+00 0.000000e+00 0.000000e+00
1
Step 200000
Ar -1.308975e+00 0.000000e+00 0.000000e+00
1
Step 201000
Ar -1.270414e+00 0.000000e+00 0.000000e+00
1
Step 202000
Ar -1.188380e+00 0.000000e+00 0.000000e+00
1
Step 203000
Ar -1.240735e+00 0.000000e+00 0.000000e+00
1
Step 204000
Ar -1.251826e+00 0.000000e+00 0.000000e+00
1
Step 205000
Ar -1.223067e+00 0.000000e+00 0.000000e+00
1
Step 206000
Ar -1.205847e+00 0.000000e+00 0.000000e+00
1
Step 207000
Ar -1.292209e+00 0.000000e+00 0.000000e+00
1
Step 208000
Ar -1.344679e+00 0.000000e+00 0.000000e+00
1
Step 209000
Ar -1.244306e+00 0.000000e+00 0.000000e+00
1
Step 210000
Ar -1.286375e+00 0.000000e+00 0.000000e+00
1
Step 211000
Ar -1.275590e+00 0.000000e+00 0.000000e+00
1
Step 212000
Ar -1.368071e+00 0.000000e+00 0.000000e+00
1
Step 213000
Ar -1.325265e+00 0.000000e+00 0.000000e+00
1
Step 214000
Ar -1.317946e+00 0.000000e+00 0.000000e+00
1
Step 215000
Ar -1.300389e+00 0.000000e+00 0.000000e+00
1
Step 216000
Ar -1.357060e+00 0.000000e+00 0.000000e+00
1
Step 217000
Ar -1.092190e+00 0.000000e+00 0.000000e+00
1
Step 218000
Ar -1.150232e+00 0.000000e+00 0.000000e+00
1
Step 219000
Ar -1.091615e+00 0.000000e+00 0.000000e+00
1
Step 220000
Ar -7.702665e-01 0.000000e+00 0.000000e+00
1
Step 221000
Ar -7.419699e-01 0.000000e+00 0.000000e+00
1
Step 222000
Ar -7.246472e-01 0.000000e+00 0.000000e+00
1
Step 223000
Ar -8.345813e-01 0.000000e+00 0.000000e+00
1
Step 224000
Ar -8.085857e-01 0.000000e+00 0.000000e+00
1
Step 225000
Ar -7.575256e-01 0.000000e+00 0.000000e+00
1
Step 226000
Ar -7.040347e-01 0.000000e+00 0.000000e+00
1
Step 227000
Ar -6.519563e-01 0.000000e+00 0.000000e+00
1
Step 228000
Ar -7.033959e-01 0.000000e+00 0.000000e+00
1
Step 229000
Ar -6.236147e-01 0.000000e+00 0.000000e+00
1
Step 230000
Ar -6.623553e-01 0.000000e+00 0.000000e+00
1
Step 231000
Ar -5.486311e-01 0.000000e+00 0.000000e+00
1
Step 232000
Ar -4.429632e-01 0.000000e+00 0.000000e+00
1
Step 233000
Ar 4.152102e-02 0.000000e+00 0.000000e+00
1
Step 234000
Ar -3.881048e-01 0.000000e+00 0.000000e+00
1
Step 235000
Ar -5.182187e-01 0.000000e+00 0.000000e+00
1
Step 236000
Ar -5.301068e-01 0.000000e+00 0.000000e+00
1
Step 237000
Ar -6.886644e-01 0.000000e+00 0.000000e+00
1
Step 238000
Ar -6.110946e-01 0.000000e+00 0.000000e+00
1
Step 239000
Ar -5.973280e-01 0.000000e+00 0.000000e+00
1
Step 240000
Ar -5.589554e-01 0.000000e+00 0.000000e+00
1
Step 241000
Ar -5.764303e-01 0.000000e+00 0.000000e+00
1
Step 242000
Ar -5.058123e-01 0.000000e+00 0.000000e+00
1
Step 243000
Ar -6.673284e-01 0.000000e+00 0.000000e+00
1
Step 244000
Ar -5.421521e-01 0.000000e+00 0.000000e+00
1
Step 245000
Ar -4.693555e-01 0.000000e+00 0.000000e+00
1
Step 246000
Ar -4.037142e-01 0.000000e+00 0.000000e+00
1
Step 247000
Ar -9.427794e-01 0.000000e+00 0.000000e+00
1
Step 248000
Ar -9.664531e-01 0.000000e+00 0.000000e+00
1
Step 249000
Ar -9.559218e-01 0.000000e+00 0.000000e+00
1
Step 250000
Ar -1.011633e+00 0.000000e+00 0.000000e+00
1
Step 251000
Ar -1.060168e+00 0.000000e+00 0.000000e+00
1
Step 252000
Ar -7.807753e-01 0.000000e+00 0.000000e+00
1
Step 253000
Ar -8.625450e-01 0.000000e+00 0.000000e+00
1
Step 254000
Ar -8.461712e-01 0.000000e+00 0.000000e+00
1
Step 255000
Ar -7.999371e-01 0.000000e+00 0.000000e+00
1
Step 256000
Ar -7.960604e-01 0.000000e+00 0.000000e+00
1
Step 257000
Ar -7.248172e-01 0.000000e+00 0.000000e+00
1
Step 258000
Ar -9.212133e-01 0.000000e+00 0.000000e+00
1
Step 259000
Ar -9.023267e-01 0.000000e+00 0.000000e+00
1
Step 260000
Ar -8.309190e-01 0.000000e+00 0.000000e+00
1
Step 261000
Ar -8.738245e-01 0.000000e+00 0.000000e+00
1
Step 262000
Ar -8.754264e-01 0.000000e+00 0.000000e+00
1
Step 263000
Ar -1.108940e+00 0.000000e+00 0.000000e+00
1
Step 264000
Ar -9.835005e-01 0.000000e+00 0.000000e+00
1
Step 265000
Ar -1.048090e+00 0.000000e+00 0.000000e+00
1
Step 266000
Ar -1.000447e+00 0.000000e+00 0.000000e+00
1
Step 267000
Ar -9.757446e-01 0.000000e+00 0.000000e+00
1
Step 268000
Ar -1.027678e+00 0.000000e+00 0.000000e+00
1
Step 269000
Ar -9.649314e-01 0.000000e+00 0.000000e+00
1
Step 270000
Ar -1.015317e+00 0.000000e+00 0.000000e+00
1
Step 271000
Ar -1.026985e+00 0.000000e+00 0.000000e+00
1
Step 272000
Ar -8.908536e-01 0.000000e+00 0.000000e+00
1
Step 273000
Ar -8.811175e-01 0.000000e+00 0.000000e+00
1
Step 274000
Ar -9.094274e-01 0.000000e+00 0.000000e+00
1
Step 275000
Ar -9.496763e-01 0.000000e+00 0.000000e+00
1
Step 276000
Ar -9.209640e-01 0.000000e+00 0.000000e+00
1
Step 277000
Ar -9.909644e-01 0.000000e+00 0.000000e+00
1
Step 278000
Ar -9.327494e-01 0.000000e+00 0.000000e+00
1
Step 279000
Ar -1.120240e+00 0.000000e+00 0.000000e+00
1
Step 280000
Ar -1.135676e+00 0.000000e+00 0.000000e+00
1
Step 281000
Ar -1.143587e+00 0.000000e+00 0.000000e+00
1
Step 282000
Ar -1.303802e+00 0.000000e+00 0.000000e+00
1
Step 283000
Ar -1.231634e+00 0.000000e+00 0.000000e+00
1
Step 284000
Ar -1.081397e+00 0.000000e+00 0.000000e+00
1
Step 285000
Ar -1.258336e+00 0.000000e+00 0.000000e+00
1
Step 286000
Ar -1.217855e+00 0.000000e+00 0.000000e+00
1
Step 287000
Ar -1.161448e+00 0.000000e+00 0.000000e+00
1
Step 288000
Ar -1.189777e+00 0.000000e+00 0.000000e+00
1
Step 289000
Ar -1.282223e+00 0.000000e+00 0.000000e+00
1
Step 290000
Ar -1.153276e+00 0.000000e+00 0.000000e+00
1
Step 291000
Ar -1.066989e+00 0.000000e+00 0.000000e+00
1
Step 292000
Ar -1.106689e+00 0.000000e+00 0.000000e+00
1
Step 293000
Ar -1.097767e+00 0.000000e+00 0.000000e+00
1
Step 294000
Ar -1.167048e+00 0.000000e+00 0.000000e+00
1
Step 295000
Ar -1.120786e+00 0.000000e+00 0.000000e+00
1
Step 296000
Ar -1.402701e+00 0.000000e+00 0.000000e+00
1
Step 297000
Ar -1.417053e+00 0.000000e+00 0.000000e+00
1
Step 298000
Ar -1.434412e+00 0.000000e+00 0.000000e+00
1
Step 299000
Ar -1.458339e+00 0.000000e+00 0.000000e+00
1
Step 300000
Ar -1.447177e+00 0.000000e+00 0.000000e+00
1
Step 301000
Ar -1.199172e+00 0.000000e+00 0.000000e+00
1
Step 302000
Ar -1.264528e+00 0.000000e+00 0.000000e+00
1
Step 303000
Ar -1.297107e+00 0.000000e+00 0.000000e+00
1
Step 304000
Ar -1.144962e+00 0.000000e+00 0.000000e+00
1
Step 305000
Ar -1.226499e+00 0.000000e+00 0.000000e+00
1
Step 306000
Ar -1.177984e+00 0.000000e+00 0.000000e+00
1
Step 307000
Ar -1.208911e+00 0.000000e+00 0.000000e+00
1
Step 308000
Ar -1.482377e+00 0.000000e+00 0.000000e+00
1
Step 309000
Ar -1.336488e+00 0.000000e+00 0.000000e+00
1
Step 310000
Ar -1.378601e+00 0.000000e+00 0.000000e+00
1
Step 311000
Ar -1.353501e+00 0.000000e+00 0.000000e+00
1
Step 312000
Ar -1.339334e+00 0.000000e+00 0.000000e+00
1
Step 313000
Ar -1.445405e+00 0.000000e+00 0.000000e+00
1
Step 314000
Ar -1.313039e+00 0.000000e+00 0.000000e+00
1
Step 315000
Ar -1.326656e+00 0.000000e+00 0.000000e+00
1
Step 316000
Ar -1.372436e+00 0.000000e+00 0.000000e+00
1
Step 317000
Ar -1.409503e+00 0.000000e+00 0.000000e+00
1
Step 318000
Ar -1.423144e+00 0.000000e+00 0.000000e+00
1
Step 319000
Ar -1.326528e+00 0.000000e+00 0.000000e+00
1
Step 320000
Ar -1.383862e+00 0.000000e+00 0.000000e+00
1
Step 321000
Ar -1.364976e+00 0.000000e+00 0.000000e+00
1
Step 322000
Ar -1.338932e+00 0.000000e+00 0.000000e+00
1
Step 323000
Ar -1.466705e+00 0.000000e+00 0.000000e+00
1
Step 324000
Ar -1.358445e+00 0.000000e+00 0.000000e+00
1
Step 325000
Ar -1.414018e+00 0.000000e+00 0.000000e+00
1
Step 326000
Ar -1.431517e+00 0.000000e+00 0.000000e+00
1
Step 327000
Ar -1.511921e+00 0.000000e+00 0.000000e+00
1
Step 328000
Ar -1.461961e+00 0.000000e+00 0.000000e+00
1
Step 329000
Ar -1.084745e+00 0.000000e+00 0.000000e+00
1
Step 330000
Ar -1.249614e+00 0.000000e+00 0.000000e+00
1
Step 331000
Ar -1.056362e+00 0.000000e+00 0.000000e+00
1
Step 332000
Ar -1.041403e+00 0.000000e+00 0.000000e+00
1
Step 333000
Ar -8.152784e-01 0.000000e+00 0.000000e+00
1
Step 334000
Ar -8.373680e-01 0.000000e+00 0.000000e+00
1
Step 335000
Ar -6.278829e-01 0.000000e+00 0.000000e+00
1
Step 336000
Ar -6.939607e-01 0.000000e+00 0.000000e+00
1
Step 337000
Ar -6.727978e-01 0.000000e+00 0.000000e+00
1
Step 338000
Ar -6.504428e-01 0.000000e+00 0.000000e+00
1
Step 339000
Ar -5.630043e-01 0.000000e+00 0.000000e+00
1
Step 340000
Ar -6.376943e-01 0.000000e+00 0.000000e+00
1
Step 341000
Ar -7.519584e-01 0.000000e+00 0.000000e+00
1
Step 342000
Ar -7.835417e-01 0.000000e+00 0.000000e+00
1
Step 343000
Ar -7.310294e-01 0.000000e+00 0.000000e+00
1
Step 344000
Ar -7.880379e-01 0.000000e+00 0.000000e+00
1
Step 345000
Ar -7.656286e-01 0.000000e+00 0.000000e+00
1
Step 346000
Ar -7.421659e-01 0.000000e+00 0.000000e+00
1
Step 347000
Ar -7.721073e-01 0.000000e+00 0.000000e+00
1
Step 348000
Ar -4.215059e-01 0.000000e+00 0.000000e+00
1
Step 349000
Ar -3.701702e-01 0.000000e+00 0.000000e+00
1
Step 350000
Ar -6.110910e-01 0.000000e+00 0.000000e+00
1
Step 351000
Ar -6.811595e-01 0.000000e+00 0.000000e+00
1
Step 352000
Ar -5.715278e-01 0.000000e+00 0.000000e+00
1
Step 353000
Ar -6.011963e-01 0.000000e+00 0.000000e+00
1
Step 354000
Ar -3.961017e-01 0.000000e+00 0.000000e+00
1
Step 355000
Ar -4.812723e-01 0.000000e+00 0.000000e+00
1
Step 356000
Ar -4.534075e-01 0.000000e+00 0.000000e+00
1
Step 357000
Ar -4.913662e-01 0.000000e+00 0.000000e+00
1
Step 358000
Ar -5.089898e-01 0.000000e+00 0.000000e+00
1
Step 359000
Ar -5.245640e-01 0.000000e+00 0.000000e+00
1
Step 360000
Ar -5.541471e-01 0.000000e+00 0.000000e+00
1
Step 361000
Ar -4.348142e-01 0.000000e+00 0.000000e+00
1
Step 362000
Ar -4.675602e-01 0.000000e+00 0.000000e+00
1
Step 363000
Ar -3.579415e-01 0.000000e+00 0.000000e+00
1
Step 364000
Ar -4.295017e-01 0.000000e+00 0.000000e+00
1
Step 365000
Ar -4.779780e-01 0.000000e+00 0.000000e+00
1
Step 366000
Ar -1.118032e-01 0.000000e+00 0.000000e+00
1
Step 367000
Ar -7.550272e-02 0.000000e+00 0.000000e+00
1
Step 368000
Ar -2.165745e-02 0.000000e+00 0.000000e+00
1
Step 369000
Ar 1.104974e-01 0.000000e+00 0.000000e+00
1
Step 370000
Ar -4.838006e-03 0.000000e+00 0.000000e+00
1
Step 371000
Ar -2.927963e-01 0.000000e+00 0.000000e+00
1
Step 372000
Ar -2.431500e-01 0.000000e+00 0.000000e+00
1
Step 373000
Ar -2.089045e-01 0.000000e+00 0.000000e+00
1
Step 374000
Ar -1.854038e-01 0.000000e+00 0.000000e+00
1
Step 375000
Ar -3.361714e-01 0.000000e+00 0.000000e+00
1
Step 376000
Ar -3.646327e-01 0.000000e+00 0.000000e+00
1
Step 377000
Ar -3.074229e-01 0.000000e+00 0.000000e+00
1
Step 378000
Ar -3.168706e-01 0.000000e+00 0.000000e+00
1
Step 379000
Ar -2.252619e-01 0.000000e+00 0.000000e+00
1
Step 380000
Ar -3.426147e-01 0.000000e+00 0.000000e+00
1
Step 381000
Ar -2.004074e-01 0.000000e+00 0.000000e+00
1
Step 382000
Ar -1.268516e-01 0.000000e+00 0.000000e+00
1
Step 383000
Ar -8.828098e-02 0.000000e+00 0.000000e+00
1
Step 384000
Ar -6.174522e-02 0.000000e+00 0.000000e+00
1
Step 385000
Ar -3.172422e-02 0.000000e+00 0.000000e+00
1
Step 386000
Ar 5.636177e-01 0.000000e+00 0.000000e+00
1
Step 387000
Ar 5.023866e-01 0.000000e+00 0.000000e+00
1
Step 388000
Ar 1.028376e+00 0.000000e+00 0.000000e+00
1
Step 389000
Ar 1.090304e+00 0.000000e+00 0.000000e+00
1
Step 390000
Ar 1.070320e+00 0.000000e+00 0.000000e+00
1
Step 391000
Ar 1.044821e+00 0.000000e+00 0.000000e+00
1
Step 392000
Ar 1.163293e+00 0.000000e+00 0.000000e+00
1
Step 393000
Ar 1.178999e+00 0.000000e+00 0.000000e+00
1
Step 394000
Ar 1.231885e+00 0.000000e+00 0.000000e+00
1
Step 395000
Ar 1.257333e+00 0.000000e+00 0.000000e+00
1
Step 396000
Ar 1.270977e+00 0.000000e+00 0.000000e+00
1
Step 397000
Ar 1.005043e+00 0.000000e+00 0.000000e+00
1
Step 398000
Ar 1.153109e+00 0.000000e+00 0.000000e+00
1
Step 399000
Ar 1.126835e+00 0.000000e+00 0.000000e+00
1
Step 400000
Ar 1.080728e+00 0.000000e+00 0.000000e+00
1
Step 401000
Ar 1.214079e+00 0.000000e+00 0.000000e+00
1
Step 402000
Ar 8.672629e-01 0.000000e+00 0.000000e+00
1
Step 403000
Ar 8.225066e-01 0.000000e+00 0.000000e+00
1
Step 404000
Ar 8.021786e-01 0.000000e+00 0.000000e+00
1
Step 405000
Ar 8.796486e-01 0.000000e+00 0.000000e+00
1
Step 406000
Ar 9.588222e-01 0.000000e+00 0.000000e+00
1
Step 407000
Ar 9.854086e-01 0.000000e+00 0.000000e+00
1
Step 408000
Ar 9.081677e-01 0.000000e+00 0.000000e+00
1
Step 409000
Ar 1.195372e+00 0.000000e+00 0.000000e+00
1
Step 410000
Ar 1.147759e+00 0.000000e+00 0.000000e+00
1
Step 411000
Ar 8.397534e-01 0.000000e+00 0.000000e+00
1
Step 412000
Ar 8.136198e-01 0.000000e+00 0.000000e+00
1
Step 413000
Ar 9.662446e-01 0.000000e+00 0.000000e+00
1
Step 414000
Ar 1.102466e+00 0.000000e+00 0.000000e+00
1
Step 415000
Ar 1.036143e+00 0.000000e+00 0.000000e+00
1
Step 416000
Ar 1.129155e+00 0.000000e+00 0.000000e+00
1
Step 417000
Ar 1.168976e+00 0.000000e+00 0.000000e+00
1
Step 418000
Ar 1.207168e+00 0.000000e+00 0.000000e+00
1
Step 419000
Ar 1.186486e+00 0.000000e+00 0.000000e+00
1
Step 420000
Ar 1.250357e+00 0.000000e+00 0.000000e+00
1
Step 421000
Ar 1.309590e+00 0.000000e+00 0.000000e+00
1
Step 422000
Ar 1.323330e+00 0.000000e+00 0.000000e+00
1
Step 423000
Ar 1.380726e+00 0.000000e+00 0.000000e+00
1
Step 424000
Ar 1.280160e+00 0.000000e+00 0.000000e+00
1
Step 425000
Ar 1.297826e+00 0.000000e+00 0.000000e+00
1
Step 426000
Ar 1.330341e+00 0.000000e+00 0.000000e+00
1
Step 427000
Ar 1.412174e+00 0.000000e+00 0.000000e+00
1
Step 428000
Ar 1.394243e+00 0.000000e+00 0.000000e+00
1
Step 429000
Ar 1.351513e+00 0.000000e+00 0.000000e+00
1
Step 430000
Ar 1.403812e+00 0.000000e+00 0.000000e+00
1
Step 431000
Ar 1.229716e+00 0.000000e+00 0.000000e+00
1
Step 432000
Ar 9.249606e-01 0.000000e+00 0.000000e+00
1
Step 433000
Ar 1.061056e+00 0.000000e+00 0.000000e+00
1
Step 434000
Ar 1.112547e+00 0.000000e+00 0.000000e+00
1
Step 435000
Ar 1.268226e+00 0.000000e+00 0.000000e+00
1
Step 436000
Ar 8.733699e-01 0.000000e+00 0.000000e+00
1
Step 437000
Ar 8.335728e-01 0.000000e+00 0.000000e+00
1
Step 438000
Ar 7.638424e-01 0.000000e+00 0.000000e+00
1
Step 439000
Ar 7.268565e-01 0.000000e+00 0.000000e+00
1
Step 440000
Ar 8.603936e-01 0.000000e+00 0.000000e+00
1
Step 441000
Ar 7.968697e-01 0.000000e+00 0.000000e+00
1
Step 442000
Ar 8.987304e-01 0.000000e+00 0.000000e+00
1
Step 443000
Ar 9.114890e-01 0.000000e+00 0.000000e+00
1
Step 444000
Ar 7.813474e-01 0.000000e+00 0.000000e+00
1
Step 445000
Ar 8.119056e-01 0.000000e+00 0.000000e+00
1
Step 446000
Ar 7.716013e-01 0.000000e+00 0.000000e+00
1
Step 447000
Ar 9.365081e-01 0.000000e+00 0.000000e+00
1
Step 448000
Ar 1.010436e+00 0.000000e+00 0.000000e+00
1
Step 449000
Ar 9.871367e-01 0.000000e+00 0.000000e+00
1
Step 450000
Ar 1.094229e+00 0.000000e+00 0.000000e+00
1
Step 451000
Ar 1.024060e+00 0.000000e+00 0.000000e+00
1
Step 452000
Ar 1.076349e+00 0.000000e+00 0.000000e+00
1
Step 453000
Ar 8.996084e-01 0.000000e+00 0.000000e+00
1
Step 454000
Ar 4.364175e-01 0.000000e+00 0.000000e+00
1
Step 455000
Ar 4.580901e-01 0.000000e+00 0.000000e+00
1
Step 456000
Ar 4.897502e-01 0.000000e+00 0.000000e+00
1
Step 457000
Ar 4.037375e-01 0.000000e+00 0.000000e+00
1
Step 458000
Ar 3.626796e-01 0.000000e+00 0.000000e+00
1
Step 459000
Ar 2.897278e-01 0.000000e+00 0.000000e+00
1
Step 460000
Ar 3.879901e-01 0.000000e+00 0.000000e+00
1
Step 461000
Ar 3.180211e-01 0.000000e+00 0.000000e+00
1
Step 462000
Ar 3.357247e-01 0.000000e+00 0.000000e+00
1
Step 463000
Ar 3.044723e-01 0.000000e+00 0.000000e+00
1
Step 464000
Ar 1.781608e-01 0.000000e+00 0.000000e+00
1
Step 465000
Ar 2.672828e-01 0.000000e+00 0.000000e+00
1
Step 466000
Ar 1.473360e-01 0.000000e+00 0.000000e+00
1
Step 467000
Ar 2.567764e-01 0.000000e+00 0.000000e+00
1
Step 468000
Ar 2.360202e-01 0.000000e+00 0.000000e+00
1
Step 469000
Ar 2.144381e-01 0.000000e+00 0.000000e+00
1
Step 470000
Ar 1.970328e-01 0.000000e+00 0.000000e+00
1
Step 471000
Ar 2.423730e-01 0.000000e+00 0.000000e+00
1
Step 472000
Ar 4.213016e-01 0.000000e+00 0.000000e+00
1
Step 473000
Ar 4.814478e-01 0.000000e+00 0.000000e+00
1
Step 474000
Ar 3.536008e-01 0.000000e+00 0.000000e+00
1
Step 475000
Ar 3.450126e-01 0.000000e+00 0.000000e+00
1
Step 476000
Ar 3.772368e-01 0.000000e+00 0.000000e+00
1
Step 477000
Ar 4.142734e-01 0.000000e+00 0.000000e+00
1
Step 478000
Ar 3.951190e-01 0.000000e+00 0.000000e+00
1
Step 479000
Ar 4.423825e-01 0.000000e+00 0.000000e+00
1
Step 480000
Ar 4.325700e-01 0.000000e+00 0.000000e+00
1
Step 481000
Ar 3.291119e-01 0.000000e+00 0.000000e+00
1
Step 482000
Ar 2.799639e-01 0.000000e+00 0.000000e+00
1
Step 483000
Ar 2.513894e-01 0.000000e+00 0.000000e+00
1
Step 484000
Ar 9.532377e-02 0.000000e+00 0.000000e+00
1
Step 485000
Ar 2.263561e-01 0.000000e+00 0.000000e+00
1
Step 486000
Ar 1.617773e-01 0.000000e+00 0.000000e+00
1
Step 487000
Ar -1.568302e-01 0.000000e+00 0.000000e+00
1
Step 488000
Ar -5.210282e-02 0.000000e+00 0.000000e+00
1
Step 489000
Ar -8.447298e-03 0.000000e+00 0.000000e+00
1
Step 490000
Ar -1.049645e-01 0.000000e+00 0.000000e+00
1
Step 491000
Ar -2.349283e-01 0.000000e+00 0.000000e+00
1
Step 492000
Ar -2.562752e-01 0.000000e+00 0.000000e+00
1
Step 493000
Ar -5.343194e-01 0.000000e+00 0.000000e+00
1
Step 494000
Ar -1.368051e-01 0.000000e+00 0.000000e+00
1
Step 495000
Ar -1.464890e-01 0.000000e+00 0.000000e+00
1
Step 496000
Ar -3.029773e-01 0.000000e+00 0.000000e+00
1
Step 497000
Ar -2.719560e-01 0.000000e+00 0.000000e+00
1
Step 498000
Ar -2.820043e-01 0.000000e+00 0.000000e+00
1
Step 499000
Ar -9.480825e-02 0.000000e+00 0.000000e+00
1
Step 500000
Ar -1.913766e-01 0.000000e+00 0.000000e+00
1
Step 501000
Ar -2.591101e-01 0.000000e+00 0.000000e+00
1
Step 502000
Ar -4.147058e-01 0.000000e+00 0.000000e+00
1
Step 503000
Ar -3.778678e-01 0.000000e+00 0.000000e+00
1
Step 504000
Ar -4.075414e-01 0.000000e+00 0.000000e+00
1
Step 505000
Ar -4.560768e-01 0.000000e+00 0.000000e+00
1
Step 506000
Ar -4.525217e-01 0.000000e+00 0.000000e+00
1
Step 507000
Ar -3.811523e-01 0.000000e+00 0.000000e+00
1
Step 508000
Ar -4.129069e-01 0.000000e+00 0.000000e+00
1
Step 509000
Ar -4.449832e-01 0.000000e+00 0.000000e+00
1
Step 510000
Ar -2.798319e-01 0.000000e+00 0.000000e+00
1
Step 511000
Ar -2.495366e-01 0.000000e+00 0.000000e+00
1
Step 512000
Ar -2.161928e-01 0.000000e+00 0.000000e+00
1
Step 513000
Ar -1.597981e-01 0.000000e+00 0.000000e+00
1
Step 514000
Ar -1.764740e-01 0.000000e+00 0.000000e+00
1
Step 515000
Ar -1.665896e-01 0.000000e+00 0.000000e+00
1
Step 516000
Ar -2.895602e-01 0.000000e+00 0.000000e+00
1
Step 517000
Ar -3.511178e-01 0.000000e+00 0.000000e+00
1
Step 518000
Ar -3.265257e-01 0.000000e+00 0.000000e+00
1
Step 519000
Ar -3.255222e-01 0.000000e+00 0.000000e+00
1
Step 520000
Ar -3.843703e-01 0.000000e+00 0.000000e+00
1
Step 521000
Ar -9.764329e-01 0.000000e+00 0.000000e+00
1
Step 522000
Ar -8.509768e-01 0.000000e+00 0.000000e+00
1
Step 523000
Ar -7.118749e-01 0.000000e+00 0.000000e+00
1
Step 524000
Ar -6.588686e-01 0.000000e+00 0.000000e+00
1
Step 525000
Ar -6.979565e-01 0.000000e+00 0.000000e+00
1
Step 526000
Ar -5.945250e-01 0.000000e+00 0.000000e+00
1
Step 527000
Ar -7.527128e-01 0.000000e+00 0.000000e+00
1
Step 528000
Ar -1.019034e+00 0.000000e+00 0.000000e+00
1
Step 529000
Ar -1.002506e+00 0.000000e+00 0.000000e+00
1
Step 530000
Ar -9.564240e-01 0.000000e+00 0.000000e+00
1
Step 531000
Ar -7.207916e-01 0.000000e+00 0.000000e+00
1
Step 532000
Ar -6.169840e-01 0.000000e+00 0.000000e+00
1
Step 533000
Ar -6.473263e-01 0.000000e+00 0.000000e+00
1
Step 534000
Ar -4.935553e-01 0.000000e+00 0.000000e+00
1
Step 535000
Ar -6.714226e-01 0.000000e+00 0.000000e+00
1
Step 536000
Ar -9.006343e-01 0.000000e+00 0.000000e+00
1
Step 537000
Ar -8.571250e-01 0.000000e+00 0.000000e+00
1
Step 538000
Ar -8.630662e-01 0.000000e+00 0.000000e+00
1
Step 539000
Ar -8.060091e-01 0.000000e+00 0.000000e+00
1
Step 540000
Ar -8.224171e-01 0.000000e+00 0.000000e+00
1
Step 541000
Ar -7.972091e-01 0.000000e+00 0.000000e+00
1
Step 542000
Ar -8.847960e-01 0.000000e+00 0.000000e+00
1
Step 543000
Ar -5.184709e-01 0.000000e+00 0.000000e+00
1
Step 544000
Ar -6.952206e-01 0.000000e+00 0.000000e+00
1
Step 545000
Ar -8.048593e-01 0.000000e+00 0.000000e+00
1
Step 546000
Ar -9.252330e-01 0.000000e+00 0.000000e+00
1
Step 547000
Ar -9.961758e-01 0.000000e+00 0.000000e+00
1
Step 548000
Ar -9.437002e-01 0.000000e+00 0.000000e+00
1
Step 549000
Ar -9.838412e-01 0.000000e+00 0.000000e+00
1
Step 550000
Ar -8.401629e-01 0.000000e+00 0.000000e+00
1
Step 551000
Ar -8.288985e-01 0.000000e+00 0.000000e+00
1
Step 552000
Ar -8.143513e-01 0.000000e+00 0.000000e+00
1
Step 553000
Ar -8.249751e-01 0.000000e+00 0.000000e+00
1
Step 554000
Ar -9.063955e-01 0.000000e+00 0.000000e+00
1
Step 555000
Ar -1.184044e+00 0.000000e+00 0.000000e+00
1
Step 556000
Ar -1.275448e+00 0.000000e+00 0.000000e+00
1
Step 557000
Ar -1.063464e+00 0.000000e+00 0.000000e+00
1
Step 558000
Ar -1.235197e+00 0.000000e+00 0.000000e+00
1
Step 559000
Ar -1.216381e+00 0.000000e+00 0.000000e+00
1
Step 560000
Ar -1.287928e+00 0.000000e+00 0.000000e+00
1
Step 561000
Ar -1.380371e+00 0.000000e+00 0.000000e+00
1
Step 562000
Ar -1.392625e+00 0.000000e+00 0.000000e+00
1
Step 563000
Ar -1.401973e+00 0.000000e+00 0.000000e+00
1
Step 564000
Ar -1.343251e+00 0.000000e+00 0.000000e+00
1
Step 565000
Ar -1.443285e+00 0.000000e+00 0.000000e+00
1
Step 566000
Ar -1.429172e+00 0.000000e+00 0.000000e+00
1
Step 567000
Ar -1.079089e+00 0.000000e+00 0.000000e+00
1
Step 568000
Ar -1.251534e+00 0.000000e+00 0.000000e+00
1
Step 569000
Ar -1.290065e+00 0.000000e+00 0.000000e+00
1
Step 570000
Ar -1.033914e+00 0.000000e+00 0.000000e+00
1
Step 571000
Ar -1.068012e+00 0.000000e+00 0.000000e+00
1
Step 572000
Ar -8.637805e-01 0.000000e+00 0.000000e+00
1
Step 573000
Ar -8.448744e-01 0.000000e+00 0.000000e+00
1
Step 574000
Ar -9.191895e-01 0.000000e+00 0.000000e+00
1
Step 575000
Ar -5.807884e-01 0.000000e+00 0.000000e+00
1
Step 576000
Ar -6.380796e-01 0.000000e+00 0.000000e+00
1
Step 577000
Ar -5.658221e-01 0.000000e+00 0.000000e+00
1
Step 578000
Ar -4.850106e-01 0.000000e+00 0.000000e+00
1
Step 579000
Ar -4.988490e-01 0.000000e+00 0.000000e+00
1
Step 580000
Ar -5.460556e-01 0.000000e+00 0.000000e+00
1
Step 581000
Ar -4.248736e-01 0.000000e+00 0.000000e+00
1
Step 582000
Ar -4.383207e-01 0.000000e+00 0.000000e+00
1
Step 583000
Ar -1.198362e-01 0.000000e+00 0.000000e+00
1
Step 584000
Ar -4.052798e-02 0.000000e+00 0.000000e+00
1
Step 585000
Ar -1.415452e-02 0.000000e+00 0.000000e+00
1
Step 586000
Ar -1.040454e-01 0.000000e+00 0.000000e+00
1
Step 587000
Ar 6.444910e-02 0.000000e+00 0.000000e+00
1
Step 588000
Ar 2.307493e-02 0.000000e+00 0.000000e+00
1
Step 589000
Ar 8.216660e-03 0.000000e+00 0.000000e+00
1
Step 590000
Ar 2.103458e-01 0.000000e+00 0.000000e+00
1
Step 591000
Ar 1.393133e-01 0.000000e+00 0.000000e+00
1
Step 592000
Ar 8.499174e-02 0.000000e+00 0.000000e+00
1
Step 593000
Ar 2.989257e-01 0.000000e+00 0.000000e+00
1
Step 594000
Ar 3.028097e-01 0.000000e+00 0.000000e+00
1
Step 595000
Ar 3.722467e-01 0.000000e+00 0.000000e+00
1
Step 596000
Ar 4.276830e-01 0.000000e+00 0.000000e+00
1
Step 597000
Ar 4.021918e-01 0.000000e+00 0.000000e+00
1
Step 598000
Ar 4.126244e-01 0.000000e+00 0.000000e+00
1
Step 599000
Ar 7.533955e-01 0.000000e+00 0.000000e+00
1
Step 600000
Ar 5.945633e-01 0.000000e+00 0.000000e+00
1
Step 601000
Ar 6.695012e-01 0.000000e+00 0.000000e+00
1
Step 602000
Ar 7.073295e-01 0.000000e+00 0.000000e+00
1
Step 603000
Ar 6.970470e-01 0.000000e+00 0.000000e+00
1
Step 604000
Ar 7.070963e-01 0.000000e+00 0.000000e+00
1
Step 605000
Ar 8.501915e-01 0.000000e+00 0.000000e+00
1
Step 606000
Ar 8.865075e-01 0.000000e+00 0.000000e+00
1
Step 607000
Ar 7.361266e-01 0.000000e+00 0.000000e+00
1
Step 608000
Ar 5.181852e-01 0.000000e+00 0.000000e+00
1
Step 609000
Ar 6.537746e-01 0.000000e+00 0.000000e+00
1
Step 610000
Ar 5.540640e-01 0.000000e+00 0.000000e+00
1
Step 611000
Ar 6.973743e-01 0.000000e+00 0.000000e+00
1
Step 612000
Ar 8.839481e-01 0.000000e+00 0.000000e+00
1
Step 613000
Ar 8.304044e-01 0.000000e+00 0.000000e+00
1
Step 614000
Ar 8.596963e-01 0.000000e+00 0.000000e+00
1
Step 615000
Ar 6.227627e-01 0.000000e+00 0.000000e+00
1
Step 616000
Ar 6.093195e-01 0.000000e+00 0.000000e+00
1
Step 617000
Ar 5.352001e-01 0.000000e+00 0.000000e+00
1
Step 618000
Ar 5.727885e-01 0.000000e+00 0.000000e+00
1
Step 619000
Ar 5.350899e-01 0.000000e+00 0.000000e+00
1
Step 620000
Ar 5.083917e-01 0.000000e+00 0.000000e+00
1
Step 621000
Ar 5.221775e-01 0.000000e+00 0.000000e+00
1
Step 622000
Ar 6.453178e-01 0.000000e+00 0.000000e+00
1
Step 623000
Ar 5.903720e-01 0.000000e+00 0.000000e+00
1
Step 624000
Ar 6.352352e-01 0.000000e+00 0.000000e+00
1
Step 625000
Ar 5.674197e-01 0.000000e+00 0.000000e+00
1
Step 626000
Ar 8.014886e-01 0.000000e+00 0.000000e+00
1
Step 627000
Ar 7.901855e-01 0.000000e+00 0.000000e+00
1
Step 628000
Ar 7.852689e-01 0.000000e+00 0.000000e+00
1
Step 629000
Ar 1.043771e+00 0.000000e+00 0.000000e+00
1
Step 630000
Ar 1.103999e+00 0.000000e+00 0.000000e+00
1
Step 631000
Ar 9.455924e-01 0.000000e+00 0.000000e+00
1
Step 632000
Ar 9.966043e-01 0.000000e+00 0.000000e+00
1
Step 633000
Ar 1.050514e+00 0.000000e+00 0.000000e+00
1
Step 634000
Ar 1.054164e+00 0.000000e+00 0.000000e+00
1
Step 635000
Ar 1.241097e+00 0.000000e+00 0.000000e+00
1
Step 636000
Ar 1.240058e+00 0.000000e+00 0.000000e+00
1
Step 637000
Ar 1.067383e+00 0.000000e+00 0.000000e+00
1
Step 638000
Ar 1.204152e+00 0.000000e+00 0.000000e+00
1
Step 639000
Ar 1.170411e+00 0.000000e+00 0.000000e+00
1
Step 640000
Ar 1.085724e+00 0.000000e+00 0.000000e+00
1
Step 641000
Ar 1.132143e+00 0.000000e+00 0.000000e+00
1
Step 642000
Ar 1.221204e+00 0.000000e+00 0.000000e+00
1
Step 643000
Ar 1.187517e+00 0.000000e+00 0.000000e+00
1
Step 644000
Ar 1.196204e+00 0.000000e+00 0.000000e+00
1
Step 645000
Ar 1.319028e+00 0.000000e+00 0.000000e+00
1
Step 646000
Ar 1.143097e+00 0.000000e+00 0.000000e+00
1
Step 647000
Ar 9.581409e-01 0.000000e+00 0.000000e+00
1
Step 648000
Ar 9.761543e-01 0.000000e+00 0.000000e+00
1
Step 649000