1
Step 120000
Ar 9.813651e-01 0.000000e+00 0.000000e+00
1
Step 121000
Ar 7.968498e-01 0.000000e+00 0.000000e+00
1
Step 122000
Ar 7.809089e-01 0.000000e+00 0.000000e+00
1
Step 123000
Ar 7.297816e-01 0.000000e+00 0.000000e+00
1
Step 124000
Ar 9.967434e-01 0.000000e+00 0.000000e+00
1
Step 125000
Ar 1.067644e+00 0.000000e+00 0.000000e+00
1
Step 126000
Ar 1.142664e+00 0.000000e+00 0.000000e+00
1
Step 127000
Ar 5.377333e-01 0.000000e+00 0.000000e+00
1
Step 128000
Ar 8.673655e-01 0.000000e+00 0.000000e+00
1
Step 129000
Ar 8.981445e-01 0.000000e+00 0.000000e+00
1
Step 130000
Ar 8.841689e-01 0.000000e+00 0.000000e+00
1
Step 131000
Ar 9.839210e-01 0.000000e+00 0.000000e+00
1
Step 132000
Ar 1.219935e+00 0.000000e+00 0.000000e+00
1
Step 133000
Ar 1.121643e+00 0.000000e+00 0.000000e+00
1
Step 134000
Ar 7.539232e-01 0.000000e+00 0.000000e+00
1
Step 135000
Ar 9.129442e-01 0.000000e+00 0.000000e+00
1
Step 136000
Ar 9.475074e-01 0.000000e+00 0.000000e+00
1
Step 137000
Ar 9.668493e-01 0.000000e+00 0.000000e+00
1
Step 138000
Ar 1.042390e+00 0.000000e+00 0.000000e+00
1
Step 139000
Ar 1.082892e+00 0.000000e+00 0.000000e+00
1
Step 140000
Ar 1.095332e+00 0.000000e+00 0.000000e+00
1
Step 141000
Ar 1.179071e+00 0.000000e+00 0.000000e+00
1
Step 142000
Ar 1.204065e+00 0.000000e+00 0.000000e+00
1
Step 143000
Ar 1.163440e+00 0.000000e+00 0.000000e+00
1
Step 144000
Ar 7.056486e-01 0.000000e+00 0.000000e+00
1
Step 145000
Ar 8.533561e-01 0.000000e+00 0.000000e+00
1
Step 146000
Ar 1.012148e+00 0.000000e+00 0.000000e+00
1
Step 147000
Ar 1.053614e+00 0.000000e+00 0.000000e+00
1
Step 148000
Ar 1.109545e+00 0.000000e+00 0.000000e+00
1
Step 149000
Ar 1.021760e+00 0.000000e+00 0.000000e+00
1
Step 150000
Ar 8.180580e-01 0.000000e+00 0.000000e+00
1
Step 151000
Ar 8.313141e-01 0.000000e+00 0.000000e+00
1
Step 152000
Ar 9.239719e-01 0.000000e+00 0.000000e+00
1
Step 153000
Ar 8.725290e-01 0.000000e+00 0.000000e+00
1
Step 154000
Ar 1.035949e+00 0.000000e+00 0.000000e+00
1
Step 155000
Ar 9.721954e-01 0.000000e+00 0.000000e+00
1
Step 156000
Ar 9.300052e-01 0.000000e+00 0.000000e+00
1
Step 157000
Ar 9.041409e-01 0.000000e+00 0.000000e+00
1
Step 158000
Ar 9.350420e-01 0.000000e+00 0.000000e+00
1
Step 159000
Ar 9.595847e-01 0.000000e+00 0.000000e+00
1
Step 160000
Ar 1.004098e+00 0.000000e+00 0.000000e+00
1
Step 161000
Ar 1.268186e+00 0.000000e+00 0.000000e+00
1
Step 162000
Ar 1.283874e+00 0.000000e+00 0.000000e+00
1
Step 163000
Ar 1.095247e+00 0.000000e+00 0.000000e+00
1
Step 164000
Ar 1.028767e+00 0.000000e+00 0.000000e+00
1
Step 165000
Ar 8.890032e-01 0.000000e+00 0.000000e+00
1
Step 166000
Ar 6.719720e-01 0.000000e+00 0.000000e+00
1
Step 167000
Ar 6.207397e-01 0.000000e+00 0.000000e+00
1
Step 168000
Ar 6.029227e-01 0.000000e+00 0.000000e+00
1
Step 169000
Ar 7.724572e-01 0.000000e+00 0.000000e+00
1
Step 170000
Ar 7.405429e-01 0.000000e+00 0.000000e+00
1
Step 171000
Ar 6.449129e-01 0.000000e+00 0.000000e+00
1
Step 172000
Ar 1.075985e+00 0.000000e+00 0.000000e+00
1
Step 173000
Ar 9.860559e-01 0.000000e+00 0.000000e+00
1
Step 174000
Ar 1.059823e+00 0.000000e+00 0.000000e+00
1
Step 175000
Ar 8.439101e-01 0.000000e+00 0.000000e+00
1
Step 176000
Ar 6.952759e-01 0.000000e+00 0.000000e+00
1
Step 177000
Ar 6.565387e-01 0.000000e+00 0.000000e+00
1
Step 178000
Ar 5.610426e-01 0.000000e+00 0.000000e+00
1
Step 179000
Ar 5.794666e-01 0.000000e+00 0.000000e+00
1
Step 180000
Ar 2.155967e-01 0.000000e+00 0.000000e+00
1
Step 181000
Ar 4.735803e-01 0.000000e+00 0.000000e+00
1
Step 182000
Ar 4.500736e-01 0.000000e+00 0.000000e+00
1
Step 183000
Ar 4.621090e-01 0.000000e+00 0.000000e+00
1
Step 184000
Ar 5.007924e-01 0.000000e+00 0.000000e+00
1
Step 185000
Ar 6.308189e-01 0.000000e+00 0.000000e+00
1
Step 186000
Ar 6.816213e-01 0.000000e+00 0.000000e+00
1
Step 187000
Ar 7.145595e-01 0.000000e+00 0.000000e+00
1
Step 188000
Ar 8.049232e-01 0.000000e+00 0.000000e+00
1
Step 189000
Ar 8.208247e-01 0.000000e+00 0.000000e+00
1
Step 190000
Ar 8.587975e-01 0.000000e+00 0.000000e+00
1
Step 191000
Ar 8.810870e-01 0.000000e+00 0.000000e+00
1
Step 192000
Ar 5.700869e-01 0.000000e+00 0.000000e+00
1
Step 193000
Ar 7.505429e-01 0.000000e+00 0.000000e+00
1
Step 194000
Ar 8.076281e-01 0.000000e+00 0.000000e+00
1
Step 195000
Ar 5.189783e-01 0.000000e+00 0.000000e+00
1
Step 196000
Ar 5.516370e-01 0.000000e+00 0.000000e+00
1
Step 197000
Ar 5.243253e-01 0.000000e+00 0.000000e+00
1
Step 198000
Ar 7.212183e-01 0.000000e+00 0.000000e+00
1
Step 199000
Ar 6.610858e-01 0.000000e+00 0.000000e+00
1
Step 200000
Ar 5.928753e-01 0.000000e+00 0.000000e+00
1
Step 201000
Ar 6.043533e-01 0.000000e+00 0.000000e+00
1
Step 202000
Ar 4.899038e-01 0.000000e+00 0.000000e+00
1
Step 203000
Ar 5.094094e-01 0.000000e+00 0.000000e+00
1
Step 204000
Ar 4.415071e-01 0.000000e+00 0.000000e+00
1
Step 205000
Ar 3.917556e-01 0.000000e+00 0.000000e+00
1
Step 206000
Ar 4.184495e-01 0.000000e+00 0.000000e+00
1
Step 207000
Ar 4.851953e-01 0.000000e+00 0.000000e+00
1
Step 208000
Ar 3.112743e-01 0.000000e+00 0.000000e+00
1
Step 209000
Ar 2.658447e-01 0.000000e+00 0.000000e+00
1
Step 210000
Ar 2.806918e-01 0.000000e+00 0.000000e+00
1
Step 211000
Ar 4.046054e-01 0.000000e+00 0.000000e+00
1
Step 212000
Ar 3.331034e-01 0.000000e+00 0.000000e+00
1
Step 213000
Ar 4.332999e-01 0.000000e+00 0.000000e+00
1
Step 214000
Ar 3.534667e-01 0.000000e+00 0.000000e+00
1
Step 215000
Ar 2.934124e-01 0.000000e+00 0.000000e+00
1
Step 216000
Ar 3.204961e-01 0.000000e+00 0.000000e+00
1
Step 217000
Ar 2.409512e-01 0.000000e+00 0.000000e+00
1
Step 218000
Ar -1.095706e+00 0.000000e+00 0.000000e+00
1
Step 219000
Ar -7.778092e-01 0.000000e+00 0.000000e+00
1
Step 220000
Ar -1.038983e+00 0.000000e+00 0.000000e+00
1
Step 221000
Ar -1.009609e+00 0.000000e+00 0.000000e+00
1
Step 222000
Ar -9.951311e-01 0.000000e+00 0.000000e+00
1
Step 223000
Ar -1.155790e+00 0.000000e+00 0.000000e+00
1
Step 224000
Ar -1.060474e+00 0.000000e+00 0.000000e+00
1
Step 225000
Ar -1.075236e+00 0.000000e+00 0.000000e+00
1
Step 226000
Ar -8.291863e-01 0.000000e+00 0.000000e+00
1
Step 227000
Ar -9.264800e-01 0.000000e+00 0.000000e+00
1
Step 228000
Ar -8.742438e-01 0.000000e+00 0.000000e+00
1
Step 229000
Ar -8.629241e-01 0.000000e+00 0.000000e+00
1
Step 230000
Ar -8.977719e-01 0.000000e+00 0.000000e+00
1
Step 231000
Ar -9.102391e-01 0.000000e+00 0.000000e+00
1
Step 232000
Ar -7.918855e-01 0.000000e+00 0.000000e+00
1
Step 233000
Ar -9.634211e-01 0.000000e+00 0.000000e+00
1
Step 234000
Ar -1.109858e+00 0.000000e+00 0.000000e+00
1
Step 235000
Ar -1.119138e+00 0.000000e+00 0.000000e+00
1
Step 236000
Ar -1.259761e+00 0.000000e+00 0.000000e+00
1
Step 237000
Ar -1.276046e+00 0.000000e+00 0.000000e+00
1
Step 238000
Ar -1.140173e+00 0.000000e+00 0.000000e+00
1
Step 239000
Ar -1.194140e+00 0.000000e+00 0.000000e+00
1
Step 240000
Ar -1.051404e+00 0.000000e+00 0.000000e+00
1
Step 241000
Ar -1.021360e+00 0.000000e+00 0.000000e+00
1
Step 242000
Ar -9.750002e-01 0.000000e+00 0.000000e+00
1
Step 243000
Ar -1.029452e+00 0.000000e+00 0.000000e+00
1
Step 244000
Ar -8.829779e-01 0.000000e+00 0.000000e+00
1
Step 245000
Ar -9.210631e-01 0.000000e+00 0.000000e+00
1
Step 246000
Ar -6.551599e-01 0.000000e+00 0.000000e+00
1
Step 247000
Ar -6.829432e-01 0.000000e+00 0.000000e+00
1
Step 248000
Ar -8.452628e-01 0.000000e+00 0.000000e+00
1
Step 249000
Ar -8.193240e-01 0.000000e+00 0.000000e+00
1
Step 250000
Ar -6.692988e-01 0.000000e+00 0.000000e+00
1
Step 251000
Ar -7.373194e-01 0.000000e+00 0.000000e+00
1
Step 252000
Ar -8.048731e-01 0.000000e+00 0.000000e+00
1
Step 253000
Ar -8.551135e-01 0.000000e+00 0.000000e+00
1
Step 254000
Ar -7.508318e-01 0.000000e+00 0.000000e+00
1
Step 255000
Ar -7.636853e-01 0.000000e+00 0.000000e+00
1
Step 256000
Ar -7.191037e-01 0.000000e+00 0.000000e+00
1
Step 257000
Ar -7.823527e-01 0.000000e+00 0.000000e+00
1
Step 258000
Ar -1.023391e+00 0.000000e+00 0.000000e+00
1
Step 259000
Ar -8.368202e-01 0.000000e+00 0.000000e+00
1
Step 260000
Ar -9.409072e-01 0.000000e+00 0.000000e+00
1
Step 261000
Ar -9.503049e-01 0.000000e+00 0.000000e+00
1
Step 262000
Ar -9.883291e-01 0.000000e+00 0.000000e+00
1
Step 263000
Ar -9.389225e-01 0.000000e+00 0.000000e+00
1
Step 264000
Ar -8.911061e-01 0.000000e+00 0.000000e+00
1
Step 265000
Ar -8.028985e-01 0.000000e+00 0.000000e+00
1
Step 266000
Ar -1.404657e-01 0.000000e+00 0.000000e+00
1
Step 267000
Ar -5.683141e-01 0.000000e+00 0.000000e+00
1
Step 268000
Ar -5.561036e-01 0.000000e+00 0.000000e+00
1
Step 269000
Ar -5.015725e-01 0.000000e+00 0.000000e+00
1
Step 270000
Ar -4.200331e-01 0.000000e+00 0.000000e+00
1
Step 271000
Ar -3.789154e-01 0.000000e+00 0.000000e+00
1
Step 272000
Ar -3.425560e-01 0.000000e+00 0.000000e+00
1
Step 273000
Ar -4.640565e-01 0.000000e+00 0.000000e+00
1
Step 274000
Ar -4.859427e-01 0.000000e+00 0.000000e+00
1
Step 275000
Ar -6.292441e-01 0.000000e+00 0.000000e+00
1
Step 276000
Ar -6.019622e-01 0.000000e+00 0.000000e+00
1
Step 277000
Ar -6.924782e-01 0.000000e+00 0.000000e+00
1
Step 278000
Ar -6.402114e-01 0.000000e+00 0.000000e+00
1
Step 279000
Ar -7.719146e-01 0.000000e+00 0.000000e+00
1
Step 280000
Ar -5.243281e-01 0.000000e+00 0.000000e+00
1
Step 281000
Ar -6.138732e-01 0.000000e+00 0.000000e+00
1
Step 282000
Ar -4.556780e-01 0.000000e+00 0.000000e+00
1
Step 283000
Ar -4.022284e-01 0.000000e+00 0.000000e+00
1
Step 284000
Ar -3.221014e-01 0.000000e+00 0.000000e+00
1
Step 285000
Ar -2.992383e-01 0.000000e+00 0.000000e+00
1
Step 286000
Ar -2.688128e-01 0.000000e+00 0.000000e+00
1
Step 287000
Ar -1.726356e-01 0.000000e+00 0.000000e+00
1
Step 288000
Ar -2.230876e-01 0.000000e+00 0.000000e+00
1
Step 289000
Ar -8.708882e-01 0.000000e+00 0.000000e+00
1
Step 290000
Ar -6.994931e-01 0.000000e+00 0.000000e+00
1
Step 291000
Ar -5.859652e-01 0.000000e+00 0.000000e+00
1
Step 292000
Ar -5.187764e-01 0.000000e+00 0.000000e+00
1
Step 293000
Ar -3.563871e-01 0.000000e+00 0.000000e+00
1
Step 294000
Ar -4.793317e-01 0.000000e+00 0.000000e+00
1
Step 295000
Ar -4.744467e-01 0.000000e+00 0.000000e+00
1
Step 296000
Ar -4.426983e-01 0.000000e+00 0.000000e+00
1
Step 297000
Ar -3.933702e-01 0.000000e+00 0.000000e+00
1
Step 298000
Ar -2.870218e-01 0.000000e+00 0.000000e+00
1
Step 299000
Ar -2.588906e-01 0.000000e+00 0.000000e+00
1
Step 300000
Ar -1.867075e-01 0.000000e+00 0.000000e+00
1
Step 301000
Ar -1.598341e-01 0.000000e+00 0.000000e+00
1
Step 302000
Ar -4.603212e-02 0.000000e+00 0.000000e+00
1
Step 303000
Ar -1.523695e-02 0.000000e+00 0.000000e+00
1
Step 304000
Ar -2.936236e-02 0.000000e+00 0.000000e+00
1
Step 305000
Ar -1.239808e-01 0.000000e+00 0.000000e+00
1
Step 306000
Ar -6.780127e-02 0.000000e+00 0.000000e+00
1
Step 307000
Ar 2.298293e-02 0.000000e+00 0.000000e+00
1
Step 308000
Ar 1.061132e-01 0.000000e+00 0.000000e+00
1
Step 309000
Ar 4.598560e-02 0.000000e+00 0.000000e+00
1
Step 310000
Ar 5.652422e-02 0.000000e+00 0.000000e+00
1
Step 311000
Ar 1.505597e-01 0.000000e+00 0.000000e+00
1
Step 312000
Ar 2.312288e-01 0.000000e+00 0.000000e+00
1
Step 313000
Ar 8.470761e-02 0.000000e+00 0.000000e+00
1
Step 314000
Ar 1.360791e-01 0.000000e+00 0.000000e+00
1
Step 315000
Ar 1.939313e-01 0.000000e+00 0.000000e+00
1
Step 316000
Ar 2.067237e-01 0.000000e+00 0.000000e+00
1
Step 317000
Ar 3.726096e-01 0.000000e+00 0.000000e+00
1
Step 318000
Ar 4.222809e-01 0.000000e+00 0.000000e+00
1
Step 319000
Ar 4.757865e-01 0.000000e+00 0.000000e+00
1
Step 320000
Ar 2.681816e-01 0.000000e+00 0.000000e+00
1
Step 321000
Ar 3.043236e-01 0.000000e+00 0.000000e+00
1
Step 322000
Ar 3.609132e-01 0.000000e+00 0.000000e+00
1
Step 323000
Ar 3.814203e-01 0.000000e+00 0.000000e+00
1
Step 324000
Ar 3.876774e-01 0.000000e+00 0.000000e+00
1
Step 325000
Ar 4.567667e-01 0.000000e+00 0.000000e+00
1
Step 326000
Ar 5.819724e-01 0.000000e+00 0.000000e+00
1
Step 327000
Ar 8.396202e-01 0.000000e+00 0.000000e+00
1
Step 328000
Ar 7.917370e-01 0.000000e+00 0.000000e+00
1
Step 329000
Ar 7.629236e-01 0.000000e+00 0.000000e+00
1
Step 330000
Ar 7.873362e-01 0.000000e+00 0.000000e+00
1
Step 331000
Ar 6.888732e-01 0.000000e+00 0.000000e+00
1
Step 332000
Ar 7.031549e-01 0.000000e+00 0.000000e+00
1
Step 333000
Ar 5.318565e-01 0.000000e+00 0.000000e+00
1
Step 334000
Ar 9.147948e-01 0.000000e+00 0.000000e+00
1
Step 335000
Ar 1.354083e+00 0.000000e+00 0.000000e+00
1
Step 336000
Ar 1.337175e+00 0.000000e+00 0.000000e+00
1
Step 337000
Ar 1.124555e+00 0.000000e+00 0.000000e+00
1
Step 338000
Ar 1.152351e+00 0.000000e+00 0.000000e+00
1
Step 339000
Ar 1.186940e+00 0.000000e+00 0.000000e+00
1
Step 340000
Ar 1.131330e+00 0.000000e+00 0.000000e+00
1
Step 341000
Ar 1.244379e+00 0.000000e+00 0.000000e+00
1
Step 342000
Ar 1.295751e+00 0.000000e+00 0.000000e+00
1
Step 343000
Ar 1.315206e+00 0.000000e+00 0.000000e+00
1
Step 344000
Ar 1.370456e+00 0.000000e+00 0.000000e+00
1
Step 345000
Ar 1.234433e+00 0.000000e+00 0.000000e+00
1
Step 346000
Ar 1.255584e+00 0.000000e+00 0.000000e+00
1
Step 347000
Ar 1.194036e+00 0.000000e+00 0.000000e+00
1
Step 348000
Ar 1.208928e+00 0.000000e+00 0.000000e+00
1
Step 349000
Ar 1.275459e+00 0.000000e+00 0.000000e+00
1
Step 350000
Ar 1.304309e+00 0.000000e+00 0.000000e+00
1
Step 351000
Ar 1.399408e+00 0.000000e+00 0.000000e+00
1
Step 352000
Ar 1.146497e+00 0.000000e+00 0.000000e+00
1
Step 353000
Ar 1.136957e+00 0.000000e+00 0.000000e+00
1
Step 354000
Ar 9.964759e-01 0.000000e+00 0.000000e+00
1
Step 355000
Ar 9.374596e-01 0.000000e+00 0.000000e+00
1
Step 356000
Ar 9.437592e-01 0.000000e+00 0.000000e+00
1
Step 357000
Ar 1.049915e+00 0.000000e+00 0.000000e+00
1
Step 358000
Ar 1.041469e+00 0.000000e+00 0.000000e+00
1
Step 359000
Ar 9.789974e-01 0.000000e+00 0.000000e+00
1
Step 360000
Ar 9.505384e-01 0.000000e+00 0.000000e+00
1
Step 361000
Ar 1.010310e+00 0.000000e+00 0.000000e+00
1
Step 362000
Ar 9.633630e-01 0.000000e+00 0.000000e+00
1
Step 363000
Ar 9.568227e-01 0.000000e+00 0.000000e+00
1
Step 364000
Ar 6.204890e-01 0.000000e+00 0.000000e+00
1
Step 365000
Ar 6.401893e-01 0.000000e+00 0.000000e+00
1
Step 366000
Ar 9.223278e-01 0.000000e+00 0.000000e+00
1
Step 367000
Ar 7.116204e-01 0.000000e+00 0.000000e+00
1
Step 368000
Ar 8.238760e-01 0.000000e+00 0.000000e+00
1
Step 369000
Ar 1.023551e+00 0.000000e+00 0.000000e+00
1
Step 370000
Ar 1.433730e+00 0.000000e+00 0.000000e+00
1
Step 371000
Ar 1.225776e+00 0.000000e+00 0.000000e+00
1
Step 372000
Ar 1.182019e+00 0.000000e+00 0.000000e+00
1
Step 373000
Ar 1.163369e+00 0.000000e+00 0.000000e+00
1
Step 374000
Ar 1.173800e+00 0.000000e+00 0.000000e+00
1
Step 375000
Ar 1.106372e+00 0.000000e+00 0.000000e+00
1
Step 376000
Ar 1.113190e+00 0.000000e+00 0.000000e+00
1
Step 377000
Ar 1.174002e+00 0.000000e+00 0.000000e+00
1
Step 378000
Ar 1.082975e+00 0.000000e+00 0.000000e+00
1
Step 379000
Ar 1.057065e+00 0.000000e+00 0.000000e+00
1
Step 380000
Ar 9.757265e-01 0.000000e+00 0.000000e+00
1
Step 381000
Ar 1.017980e+00 0.000000e+00 0.000000e+00
1
Step 382000
Ar 8.693737e-01 0.000000e+00 0.000000e+00
1
Step 383000
Ar 8.941152e-01 0.000000e+00 0.000000e+00
1
Step 384000
Ar 8.596680e-01 0.000000e+00 0.000000e+00
1
Step 385000
Ar 9.107870e-01 0.000000e+00 0.000000e+00
1
Step 386000
Ar 8.764930e-01 0.000000e+00 0.000000e+00
1
Step 387000
Ar 1.131248e+00 0.000000e+00 0.000000e+00
1
Step 388000
Ar 8.963078e-01 0.000000e+00 0.000000e+00
1
Step 389000
Ar 7.304342e-01 0.000000e+00 0.000000e+00
1
Step 390000
Ar 7.685434e-01 0.000000e+00 0.000000e+00
1
Step 391000
Ar 7.783484e-01 0.000000e+00 0.000000e+00
1
Step 392000
Ar 5.583918e-01 0.000000e+00 0.000000e+00
1
Step 393000
Ar 6.742732e-01 0.000000e+00 0.000000e+00
1
Step 394000
Ar 5.896933e-01 0.000000e+00 0.000000e+00
1
Step 395000
Ar 5.708054e-01 0.000000e+00 0.000000e+00
1
Step 396000
Ar 7.413793e-01 0.000000e+00 0.000000e+00
1
Step 397000
Ar 8.135816e-01 0.000000e+00 0.000000e+00
1
Step 398000
Ar 7.608690e-01 0.000000e+00 0.000000e+00
1
Step 399000
Ar 7.360576e-01 0.000000e+00 0.000000e+00
1
Step 400000
Ar 1.243165e+00 0.000000e+00 0.000000e+00
1
Step 401000
Ar 1.263072e+00 0.000000e+00 0.000000e+00
1
Step 402000
Ar 1.194578e+00 0.000000e+00 0.000000e+00
1
Step 403000
Ar 1.217122e+00 0.000000e+00 0.000000e+00
1
Step 404000
Ar 1.233598e+00 0.000000e+00 0.000000e+00
1
Step 405000
Ar 1.198949e+00 0.000000e+00 0.000000e+00
1
Step 406000
Ar 7.471117e-01 0.000000e+00 0.000000e+00
1
Step 407000
Ar 5.424251e-01 0.000000e+00 0.000000e+00
1
Step 408000
Ar 5.006152e-01 0.000000e+00 0.000000e+00
1
Step 409000
Ar 6.553216e-01 0.000000e+00 0.000000e+00
1
Step 410000
Ar 6.141987e-01 0.000000e+00 0.000000e+00
1
Step 411000
Ar 5.783010e-01 0.000000e+00 0.000000e+00
1
Step 412000
Ar 3.418029e-01 0.000000e+00 0.000000e+00
1
Step 413000
Ar 3.740425e-01 0.000000e+00 0.000000e+00
1
Step 414000
Ar 4.110070e-01 0.000000e+00 0.000000e+00
1
Step 415000
Ar 4.558701e-01 0.000000e+00 0.000000e+00
1
Step 416000
Ar 1.218339e-01 0.000000e+00 0.000000e+00
1
Step 417000
Ar -5.609644e-02 0.000000e+00 0.000000e+00
1
Step 418000
Ar -1.141680e-01 0.000000e+00 0.000000e+00
1
Step 419000
Ar -1.001528e-01 0.000000e+00 0.000000e+00
1
Step 420000
Ar -3.587825e-01 0.000000e+00 0.000000e+00
1
Step 421000
Ar 3.856357e-02 0.000000e+00 0.000000e+00
1
Step 422000
Ar -2.706463e-01 0.000000e+00 0.000000e+00
1
Step 423000
Ar -3.504134e-01 0.000000e+00 0.000000e+00
1
Step 424000
Ar -9.807605e-01 0.000000e+00 0.000000e+00
1
Step 425000
Ar -9.989477e-01 0.000000e+00 0.000000e+00
1
Step 426000
Ar -9.604302e-01 0.000000e+00 0.000000e+00
1
Step 427000
Ar -1.222627e+00 0.000000e+00 0.000000e+00
1
Step 428000
Ar -1.213979e+00 0.000000e+00 0.000000e+00
1
Step 429000
Ar -1.170128e+00 0.000000e+00 0.000000e+00
1
Step 430000
Ar -1.085534e+00 0.000000e+00 0.000000e+00
1
Step 431000
Ar -1.178847e+00 0.000000e+00 0.000000e+00
1
Step 432000
Ar -1.204223e+00 0.000000e+00 0.000000e+00
1
Step 433000
Ar -1.131586e+00 0.000000e+00 0.000000e+00
1
Step 434000
Ar -1.047642e+00 0.000000e+00 0.000000e+00
1
Step 435000
Ar -1.293616e+00 0.000000e+00 0.000000e+00
1
Step 436000
Ar -1.309099e+00 0.000000e+00 0.000000e+00
1
Step 437000
Ar -1.237677e+00 0.000000e+00 0.000000e+00
1
Step 438000
Ar -1.340315e+00 0.000000e+00 0.000000e+00
1
Step 439000
Ar -1.355473e+00 0.000000e+00 0.000000e+00
1
Step 440000
Ar -1.199039e+00 0.000000e+00 0.000000e+00
1
Step 441000
Ar -1.066795e+00 0.000000e+00 0.000000e+00
1
Step 442000
Ar -1.151535e+00 0.000000e+00 0.000000e+00
1
Step 443000
Ar -1.128631e+00 0.000000e+00 0.000000e+00
1
Step 444000
Ar -9.492363e-01 0.000000e+00 0.000000e+00
1
Step 445000
Ar -9.716989e-01 0.000000e+00 0.000000e+00
1
Step 446000
Ar -1.101545e+00 0.000000e+00 0.000000e+00
1
Step 447000
Ar -1.078406e+00 0.000000e+00 0.000000e+00
1
Step 448000
Ar -1.166110e+00 0.000000e+00 0.000000e+00
1
Step 449000
Ar -1.187850e+00 0.000000e+00 0.000000e+00
1
Step 450000
Ar -1.006751e+00 0.000000e+00 0.000000e+00
1
Step 451000
Ar -7.876678e-01 0.000000e+00 0.000000e+00
1
Step 452000
Ar -5.381196e-01 0.000000e+00 0.000000e+00
1
Step 453000
Ar -5.844576e-01 0.000000e+00 0.000000e+00
1
Step 454000
Ar -5.544269e-01 0.000000e+00 0.000000e+00
1
Step 455000
Ar -7.360879e-01 0.000000e+00 0.000000e+00
1
Step 456000
Ar -6.082541e-01 0.000000e+00 0.000000e+00
1
Step 457000
Ar -7.552853e-01 0.000000e+00 0.000000e+00
1
Step 458000
Ar -7.466584e-01 0.000000e+00 0.000000e+00
1
Step 459000
Ar -6.452943e-01 0.000000e+00 0.000000e+00
1
Step 460000
Ar -7.089841e-01 0.000000e+00 0.000000e+00
1
Step 461000
Ar -7.252501e-01 0.000000e+00 0.000000e+00
1
Step 462000
Ar -6.596149e-01 0.000000e+00 0.000000e+00
1
Step 463000
Ar -6.742701e-01 0.000000e+00 0.000000e+00
1
Step 464000
Ar -6.227277e-01 0.000000e+00 0.000000e+00
1
Step 465000
Ar -6.832693e-01 0.000000e+00 0.000000e+00
1
Step 466000
Ar -9.128654e-01 0.000000e+00 0.000000e+00
1
Step 467000
Ar -8.878919e-01 0.000000e+00 0.000000e+00
1
Step 468000
Ar -1.143075e+00 0.000000e+00 0.000000e+00
1
Step 469000
Ar -1.176407e+00 0.000000e+00 0.000000e+00
1
Step 470000
Ar -1.063492e+00 0.000000e+00 0.000000e+00
1
Step 471000
Ar -1.091439e+00 0.000000e+00 0.000000e+00
1
Step 472000
Ar -1.110244e+00 0.000000e+00 0.000000e+00
1
Step 473000
Ar -8.582769e-01 0.000000e+00 0.000000e+00
1
Step 474000
Ar -8.794740e-01 0.000000e+00 0.000000e+00
1
Step 475000
Ar -8.434426e-01 0.000000e+00 0.000000e+00
1
Step 476000
Ar -8.108685e-01 0.000000e+00 0.000000e+00
1
Step 477000
Ar -8.282022e-01 0.000000e+00 0.000000e+00
1
Step 478000
Ar -8.164152e-01 0.000000e+00 0.000000e+00
1
Step 479000
Ar -7.639079e-01 0.000000e+00 0.000000e+00
1
Step 480000
Ar -7.029293e-01 0.000000e+00 0.000000e+00
1
Step 481000
Ar -7.310883e-01 0.000000e+00 0.000000e+00
1
Step 482000
Ar -7.041158e-01 0.000000e+00 0.000000e+00
1
Step 483000
Ar -5.088336e-01 0.000000e+00 0.000000e+00
1
Step 484000
Ar -5.752632e-01 0.000000e+00 0.000000e+00
1
Step 485000
Ar -4.940840e-01 0.000000e+00 0.000000e+00
1
Step 486000
Ar -6.656356e-01 0.000000e+00 0.000000e+00
1
Step 487000
Ar -6.344683e-01 0.000000e+00 0.000000e+00
1
Step 488000
Ar -6.498923e-01 0.000000e+00 0.000000e+00
1
Step 489000
Ar -6.167601e-01 0.000000e+00 0.000000e+00
1
Step 490000
Ar -5.353788e-01 0.000000e+00 0.000000e+00
1
Step 491000
Ar -5.931051e-01 0.000000e+00 0.000000e+00
1
Step 492000
Ar -5.995617e-01 0.000000e+00 0.000000e+00
1
Step 493000
Ar -5.261415e-01 0.000000e+00 0.000000e+00
1
Step 494000
Ar -5.643200e-01 0.000000e+00 0.000000e+00
1
Step 495000
Ar -7.664416e-01 0.000000e+00 0.000000e+00
1
Step 496000
Ar -8.682216e-01 0.000000e+00 0.000000e+00
1
Step 497000
Ar -8.222161e-01 0.000000e+00 0.000000e+00
1
Step 498000
Ar -1.253044e+00 0.000000e+00 0.000000e+00
1
Step 499000
Ar -1.317907e+00 0.000000e+00 0.000000e+00
1
Step 500000
Ar -1.327475e+00 0.000000e+00 0.000000e+00
1
Step 501000
Ar -1.392068e+00 0.000000e+00 0.000000e+00
1
Step 502000
Ar -1.408190e+00 0.000000e+00 0.000000e+00
1
Step 503000
Ar -1.368732e+00 0.000000e+00 0.000000e+00
1
Step 504000
Ar -1.262481e+00 0.000000e+00 0.000000e+00
1
Step 505000
Ar -1.377008e+00 0.000000e+00 0.000000e+00
1
Step 506000
Ar -1.232597e+00 0.000000e+00 0.000000e+00
1
Step 507000
Ar -1.247594e+00 0.000000e+00 0.000000e+00
1
Step 508000
Ar -1.185112e+00 0.000000e+00 0.000000e+00
1
Step 509000
Ar -9.035410e-01 0.000000e+00 0.000000e+00
1
Step 510000
Ar -9.336889e-01 0.000000e+00 0.000000e+00
1
Step 511000
Ar -9.605435e-01 0.000000e+00 0.000000e+00
1
Step 512000
Ar -1.296870e+00 0.000000e+00 0.000000e+00
1
Step 513000
Ar -1.041013e+00 0.000000e+00 0.000000e+00
1
Step 514000
Ar -9.136276e-01 0.000000e+00 0.000000e+00
1
Step 515000
Ar -8.926476e-01 0.000000e+00 0.000000e+00
1
Step 516000
Ar -1.388336e+00 0.000000e+00 0.000000e+00
1
Step 517000
Ar -1.355648e+00 0.000000e+00 0.000000e+00
1
Step 518000
Ar -1.422637e+00 0.000000e+00 0.000000e+00
1
Step 519000
Ar -1.449276e+00 0.000000e+00 0.000000e+00
1
Step 520000
Ar -1.482357e+00 0.000000e+00 0.000000e+00
1
Step 521000
Ar -1.405241e+00 0.000000e+00 0.000000e+00
1
Step 522000
Ar -1.117627e+00 0.000000e+00 0.000000e+00
1
Step 523000
Ar -1.208278e+00 0.000000e+00 0.000000e+00
1
Step 524000
Ar -1.162160e+00 0.000000e+00 0.000000e+00
1
Step 525000
Ar -9.917205e-01 0.000000e+00 0.000000e+00
1
Step 526000
Ar -9.289629e-01 0.000000e+00 0.000000e+00
1
Step 527000
Ar -9.800860e-01 0.000000e+00 0.000000e+00
1
Step 528000
Ar -9.548511e-01 0.000000e+00 0.000000e+00
1
Step 529000
Ar -9.223476e-01 0.000000e+00 0.000000e+00
1
Step 530000
Ar -8.493464e-01 0.000000e+00 0.000000e+00
1
Step 531000
Ar -8.347206e-01 0.000000e+00 0.000000e+00
1
Step 532000
Ar -1.029778e+00 0.000000e+00 0.000000e+00
1
Step 533000
Ar -1.140485e+00 0.000000e+00 0.000000e+00
1
Step 534000
Ar -1.101108e+00 0.000000e+00 0.000000e+00
1
Step 535000
Ar -1.075394e+00 0.000000e+00 0.000000e+00
1
Step 536000
Ar -1.014753e+00 0.000000e+00 0.000000e+00
1
Step 537000
Ar -1.010138e+00 0.000000e+00 0.000000e+00
1
Step 538000
Ar -1.055371e+00 0.000000e+00 0.000000e+00
1
Step 539000
Ar -1.221518e+00 0.000000e+00 0.000000e+00
1
Step 540000
Ar -1.236923e+00 0.000000e+00 0.000000e+00
1
Step 541000
Ar -1.315778e+00 0.000000e+00 0.000000e+00
1
Step 542000
Ar -1.286544e+00 0.000000e+00 0.000000e+00
1
Step 543000
Ar -1.277407e+00 0.000000e+00 0.000000e+00
1
Step 544000
Ar -1.299662e+00 0.000000e+00 0.000000e+00
1
Step 545000
Ar -1.348623e+00 0.000000e+00 0.000000e+00
1
Step 546000
Ar -1.330063e+00 0.000000e+00 0.000000e+00
1
Step 547000
Ar -1.345016e+00 0.000000e+00 0.000000e+00
1
Step 548000
Ar -1.249829e+00 0.000000e+00 0.000000e+00
1
Step 549000
Ar -1.260676e+00 0.000000e+00 0.000000e+00
1
Step 550000
Ar -1.461592e+00 0.000000e+00 0.000000e+00
1
Step 551000
Ar -1.437612e+00 0.000000e+00 0.000000e+00
1
Step 552000
Ar -1.427739e+00 0.000000e+00 0.000000e+00
1
Step 553000
Ar -1.467263e+00 0.000000e+00 0.000000e+00
1
Step 554000
Ar -1.492315e+00 0.000000e+00 0.000000e+00
1
Step 555000
Ar -1.473992e+00 0.000000e+00 0.000000e+00
1
Step 556000
Ar -1.267084e+00 0.000000e+00 0.000000e+00
1
Step 557000
Ar -1.280769e+00 0.000000e+00 0.000000e+00
1
Step 558000
Ar -1.273526e+00 0.000000e+00 0.000000e+00
1
Step 559000
Ar -1.224893e+00 0.000000e+00 0.000000e+00
1
Step 560000
Ar -7.124243e-01 0.000000e+00 0.000000e+00
1
Step 561000
Ar -7.395116e-01 0.000000e+00 0.000000e+00
1
Step 562000
Ar -9.810280e-01 0.000000e+00 0.000000e+00
1
Step 563000
Ar -1.125425e+00 0.000000e+00 0.000000e+00
1
Step 564000
Ar -1.086166e+00 0.000000e+00 0.000000e+00
1
Step 565000
Ar -1.152541e+00 0.000000e+00 0.000000e+00
1
Step 566000
Ar -1.000412e+00 0.000000e+00 0.000000e+00
1
Step 567000
Ar -1.046756e+00 0.000000e+00 0.000000e+00
1
Step 568000
Ar -1.036233e+00 0.000000e+00 0.000000e+00
1
Step 569000
Ar -1.160019e+00 0.000000e+00 0.000000e+00
1
Step 570000
Ar -7.967434e-01 0.000000e+00 0.000000e+00
1
Step 571000
Ar -7.954068e-01 0.000000e+00 0.000000e+00
1
Step 572000
Ar -9.421833e-01 0.000000e+00 0.000000e+00
1
Step 573000
Ar -8.697567e-01 0.000000e+00 0.000000e+00
1
Step 574000
Ar -8.613733e-01 0.000000e+00 0.000000e+00
1
Step 575000
Ar -7.801547e-01 0.000000e+00 0.000000e+00
1
Step 576000
Ar -7.545079e-01 0.000000e+00 0.000000e+00
1
Step 577000
Ar -7.257465e-01 0.000000e+00 0.000000e+00
1
Step 578000
Ar -6.904413e-01 0.000000e+00 0.000000e+00
1
Step 579000
Ar -5.428393e-01 0.000000e+00 0.000000e+00
1
Step 580000
Ar -5.886162e-01 0.000000e+00 0.000000e+00
1
Step 581000
Ar -6.770571e-01 0.000000e+00 0.000000e+00
1
Step 582000
Ar -6.925374e-01 0.000000e+00 0.000000e+00
1
Step 583000
Ar -6.217279e-01 0.000000e+00 0.000000e+00
1
Step 584000
Ar -6.350752e-01 0.000000e+00 0.000000e+00
1
Step 585000
Ar -6.507413e-01 0.000000e+00 0.000000e+00
1
Step 586000
Ar -7.130620e-01 0.000000e+00 0.000000e+00
1
Step 587000
Ar -7.477051e-01 0.000000e+00 0.000000e+00
1
Step 588000
Ar -7.211927e-01 0.000000e+00 0.000000e+00
1
Step 589000
Ar -6.049612e-01 0.000000e+00 0.000000e+00
1
Step 590000
Ar -4.326174e-01 0.000000e+00 0.000000e+00
1
Step 591000
Ar -4.095906e-01 0.000000e+00 0.000000e+00
1
Step 592000
Ar -3.665426e-01 0.000000e+00 0.000000e+00
1
Step 593000
Ar -4.140546e-01 0.000000e+00 0.000000e+00
1
Step 594000
Ar -3.960012e-01 0.000000e+00 0.000000e+00
1
Step 595000
Ar -1.504903e-01 0.000000e+00 0.000000e+00
1
Step 596000
Ar -4.778861e-03 0.000000e+00 0.000000e+00
1
Step 597000
Ar -3.627945e-02 0.000000e+00 0.000000e+00
1
Step 598000
Ar -3.788245e-01 0.000000e+00 0.000000e+00
1
Step 599000
Ar -3.883804e-01 0.000000e+00 0.000000e+00
1
Step 600000
Ar -3.731038e-01 0.000000e+00 0.000000e+00
1
Step 601000
Ar -3.209446e-01 0.000000e+00 0.000000e+00
1
Step 602000
Ar -3.090963e-01 0.000000e+00 0.000000e+00
1
Step 603000
Ar -2.818197e-01 0.000000e+00 0.000000e+00
1
Step 604000
Ar -8.835006e-02 0.000000e+00 0.000000e+00
1
Step 605000
Ar -7.666812e-02 0.000000e+00 0.000000e+00
1
Step 606000
Ar -1.377793e-01 0.000000e+00 0.000000e+00
1
Step 607000
Ar 1.709942e-01 0.000000e+00 0.000000e+00
1
Step 608000
Ar 1.839798e-01 0.000000e+00 0.000000e+00
1
Step 609000
Ar 1.604888e-01 0.000000e+00 0.000000e+00
1
Step 610000
Ar 1.223819e-02 0.000000e+00 0.000000e+00
1
Step 611000
Ar 3.453142e-03 0.000000e+00 0.000000e+00
1
Step 612000
Ar 2.539079e-01 0.000000e+00 0.000000e+00
1
Step 613000
Ar 7.210556e-02 0.000000e+00 0.000000e+00
1
Step 614000
Ar 2.210033e-01 0.000000e+00 0.000000e+00
1
Step 615000
Ar 2.538194e-01 0.000000e+00 0.000000e+00
1
Step 616000
Ar 6.291846e-02 0.000000e+00 0.000000e+00
1
Step 617000
Ar -2.400593e-01 0.000000e+00 0.000000e+00
1
Step 618000
Ar -2.114178e-01 0.000000e+00 0.000000e+00
1
Step 619000
Ar -2.006295e-01 0.000000e+00 0.000000e+00
1
Step 620000
Ar -2.546792e-01 0.000000e+00 0.000000e+00
1
Step 621000
Ar -2.774248e-01 0.000000e+00 0.000000e+00
1
Step 622000
Ar -2.314799e-01 0.000000e+00 0.000000e+00
1
Step 623000
Ar -1.764812e-01 0.000000e+00 0.000000e+00
1
Step 624000
Ar -2.134947e-01 0.000000e+00 0.000000e+00
1
Step 625000
Ar -2.442342e-01 0.000000e+00 0.000000e+00
1
Step 626000
Ar -2.313496e-01 0.000000e+00 0.000000e+00
1
Step 627000
Ar -1.927146e-01 0.000000e+00 0.000000e+00
1
Step 628000
Ar -2.030666e-01 0.000000e+00 0.000000e+00
1
Step 629000
Ar -1.582845e-01 0.000000e+00 0.000000e+00
1
Step 630000
Ar 6.564896e-03 0.000000e+00 0.000000e+00
1
Step 631000
Ar 8.098742e-02 0.000000e+00 0.000000e+00
1
Step 632000
Ar 1.328002e-01 0.000000e+00 0.000000e+00
1
Step 633000
Ar 1.819608e-01 0.000000e+00 0.000000e+00
1
Step 634000
Ar 1.156796e-01 0.000000e+00 0.000000e+00
1
Step 635000
Ar 9.252046e-02 0.000000e+00 0.000000e+00
1
Step 636000
Ar 2.854459e-01 0.000000e+00 0.000000e+00
1
Step 637000
Ar 3.494661e-01 0.000000e+00 0.000000e+00
1
Step 638000
Ar 3.270819e-01 0.000000e+00 0.000000e+00
1
Step 639000
Ar 2.740962e-01 0.000000e+00 0.000000e+00
1
Step 640000
Ar 1.125278e-01 0.000000e+00 0.000000e+00
1
Step 641000
Ar 1.470368e-01 0.000000e+00 0.000000e+00
1
Step 642000
Ar 2.279322e-01 0.000000e+00 0.000000e+00
1
Step 643000
Ar 1.595208e-01 0.000000e+00 0.000000e+00
1
Step 644000
Ar 1.953322e-01 0.000000e+00 0.000000e+00
1
Step 645000
Ar -5.802338e-02 0.000000e+00 0.000000e+00
1
Step 646000
Ar -1.027869e-01 0.000000e+00 0.000000e+00
1
Step 647000
Ar -1.789137e-01 0.000000e+00 0.000000e+00
1
Step 648000
Ar -3.296590e-01 0.000000e+00 0.000000e+00
1
Step 649000
Ar -3.349131e-01 0.000000e+00 0.000000e+00
1
Step 650000