1
Step 120000
Ar 1.054192e+00 0.000000e+00 0.000000e+00
1
Step 121000
Ar 1.024813e+00 0.000000e+00 0.000000e+00
1
Step 122000
Ar 1.200139e+00 0.000000e+00 0.000000e+00
1
Step 123000
Ar 1.015731e+00 0.000000e+00 0.000000e+00
1
Step 124000
Ar 1.048272e+00 0.000000e+00 0.000000e+00
1
Step 125000
Ar 1.169075e+00 0.000000e+00 0.000000e+00
1
Step 126000
Ar 1.199206e+00 0.000000e+00 0.000000e+00
1
Step 127000
Ar 1.183099e+00 0.000000e+00 0.000000e+00
1
Step 128000
Ar 1.252047e+00 0.000000e+00 0.000000e+00
1
Step 129000
Ar 1.185512e+00 0.000000e+00 0.000000e+00
1
Step 130000
Ar 1.225675e+00 0.000000e+00 0.000000e+00
1
Step 131000
Ar 1.199968e+00 0.000000e+00 0.000000e+00
1
Step 132000
Ar 1.207558e+00 0.000000e+00 0.000000e+00
1
Step 133000
Ar 1.202524e+00 0.000000e+00 0.000000e+00
1
Step 134000
Ar 1.189854e+00 0.000000e+00 0.000000e+00
1
Step 135000
Ar 1.196004e+00 0.000000e+00 0.000000e+00
1
Step 136000
Ar 1.213996e+00 0.000000e+00 0.000000e+00
1
Step 137000
Ar 1.212867e+00 0.000000e+00 0.000000e+00
1
Step 138000
Ar 1.212136e+00 0.000000e+00 0.000000e+00
1
Step 139000
Ar 1.211254e+00 0.000000e+00 0.000000e+00
1
Step 140000
Ar 1.208554e+00 0.000000e+00 0.000000e+00
1
Step 141000
Ar 1.178839e+00 0.000000e+00 0.000000e+00
1
Step 142000
Ar 1.184479e+00 0.000000e+00 0.000000e+00
1
Step 143000
Ar 1.177633e+00 0.000000e+00 0.000000e+00
1
Step 144000
Ar 1.181291e+00 0.000000e+00 0.000000e+00
1
Step 145000
Ar 1.179692e+00 0.000000e+00 0.000000e+00
1
Step 146000
Ar 1.062234e+00 0.000000e+00 0.000000e+00
1
Step 147000
Ar 1.025341e+00 0.000000e+00 0.000000e+00
1
Step 148000
Ar 1.003522e+00 0.000000e+00 0.000000e+00
1
Step 149000
Ar 1.079283e+00 0.000000e+00 0.000000e+00
1
Step 150000
Ar 9.200760e-01 0.000000e+00 0.000000e+00
1
Step 151000
Ar 9.058401e-01 0.000000e+00 0.000000e+00
1
Step 152000
Ar 7.027224e-01 0.000000e+00 0.000000e+00
1
Step 153000
Ar 8.639268e-01 0.000000e+00 0.000000e+00
1
Step 154000
Ar 7.568957e-01 0.000000e+00 0.000000e+00
1
Step 155000
Ar 8.476364e-01 0.000000e+00 0.000000e+00
1
Step 156000
Ar 8.074675e-01 0.000000e+00 0.000000e+00
1
Step 157000
Ar 8.010247e-01 0.000000e+00 0.000000e+00
1
Step 158000
Ar 8.040518e-01 0.000000e+00 0.000000e+00
1
Step 159000
Ar 8.043463e-01 0.000000e+00 0.000000e+00
1
Step 160000
Ar 6.971579e-01 0.000000e+00 0.000000e+00
1
Step 161000
Ar 7.213920e-01 0.000000e+00 0.000000e+00
1
Step 162000
Ar 8.346304e-01 0.000000e+00 0.000000e+00
1
Step 163000
Ar 8.031371e-01 0.000000e+00 0.000000e+00
1
Step 164000
Ar 8.075849e-01 0.000000e+00 0.000000e+00
1
Step 165000
Ar 7.156280e-01 0.000000e+00 0.000000e+00
1
Step 166000
Ar 7.928979e-01 0.000000e+00 0.000000e+00
1
Step 167000
Ar 7.651801e-01 0.000000e+00 0.000000e+00
1
Step 168000
Ar 7.531638e-01 0.000000e+00 0.000000e+00
1
Step 169000
Ar 7.536330e-01 0.000000e+00 0.000000e+00
1
Step 170000
Ar 7.970023e-01 0.000000e+00 0.000000e+00
1
Step 171000
Ar 8.114390e-01 0.000000e+00 0.000000e+00
1
Step 172000
Ar 8.251027e-01 0.000000e+00 0.000000e+00
1
Step 173000
Ar 8.231713e-01 0.000000e+00 0.000000e+00
1
Step 174000
Ar 8.241598e-01 0.000000e+00 0.000000e+00
1
Step 175000
Ar 8.358881e-01 0.000000e+00 0.000000e+00
1
Step 176000
Ar 6.500142e-01 0.000000e+00 0.000000e+00
1
Step 177000
Ar 6.836411e-01 0.000000e+00 0.000000e+00
1
Step 178000
Ar 6.789159e-01 0.000000e+00 0.000000e+00
1
Step 179000
Ar 6.419353e-01 0.000000e+00 0.000000e+00
1
Step 180000
Ar 6.405752e-01 0.000000e+00 0.000000e+00
1
Step 181000
Ar 6.776401e-01 0.000000e+00 0.000000e+00
1
Step 182000
Ar 6.700986e-01 0.000000e+00 0.000000e+00
1
Step 183000
Ar 6.712687e-01 0.000000e+00 0.000000e+00
1
Step 184000
Ar 6.782472e-01 0.000000e+00 0.000000e+00
1
Step 185000
Ar 6.611956e-01 0.000000e+00 0.000000e+00
1
Step 186000
Ar 9.739154e-01 0.000000e+00 0.000000e+00
1
Step 187000
Ar 1.022270e+00 0.000000e+00 0.000000e+00
1
Step 188000
Ar 1.054343e+00 0.000000e+00 0.000000e+00
1
Step 189000
Ar 1.139871e+00 0.000000e+00 0.000000e+00
1
Step 190000
Ar 9.802025e-01 0.000000e+00 0.000000e+00
1
Step 191000
Ar 1.009168e+00 0.000000e+00 0.000000e+00
1
Step 192000
Ar 1.090025e+00 0.000000e+00 0.000000e+00
1
Step 193000
Ar 1.019520e+00 0.000000e+00 0.000000e+00
1
Step 194000
Ar 1.018800e+00 0.000000e+00 0.000000e+00
1
Step 195000
Ar 1.026747e+00 0.000000e+00 0.000000e+00
1
Step 196000
Ar 1.092725e+00 0.000000e+00 0.000000e+00
1
Step 197000
Ar 1.095591e+00 0.000000e+00 0.000000e+00
1
Step 198000
Ar 1.052795e+00 0.000000e+00 0.000000e+00
1
Step 199000
Ar 1.079239e+00 0.000000e+00 0.000000e+00
1
Step 200000
Ar 1.054295e+00 0.000000e+00 0.000000e+00
1
Step 201000
Ar 1.090217e+00 0.000000e+00 0.000000e+00
1
Step 202000
Ar 1.070870e+00 0.000000e+00 0.000000e+00
1
Step 203000
Ar 1.073559e+00 0.000000e+00 0.000000e+00
1
Step 204000
Ar 1.155722e+00 0.000000e+00 0.000000e+00
1
Step 205000
Ar 1.083775e+00 0.000000e+00 0.000000e+00
1
Step 206000
Ar 1.042038e+00 0.000000e+00 0.000000e+00
1
Step 207000
Ar 1.043112e+00 0.000000e+00 0.000000e+00
1
Step 208000
Ar 1.039009e+00 0.000000e+00 0.000000e+00
1
Step 209000
Ar 1.040781e+00 0.000000e+00 0.000000e+00
1
Step 210000
Ar 1.041289e+00 0.000000e+00 0.000000e+00
1
Step 211000
Ar 1.131345e+00 0.000000e+00 0.000000e+00
1
Step 212000
Ar 1.143835e+00 0.000000e+00 0.000000e+00
1
Step 213000
Ar 1.155938e+00 0.000000e+00 0.000000e+00
1
Step 214000
Ar 1.126997e+00 0.000000e+00 0.000000e+00
1
Step 215000
Ar 1.149130e+00 0.000000e+00 0.000000e+00
1
Step 216000
Ar 1.117356e+00 0.000000e+00 0.000000e+00
1
Step 217000
Ar 1.139805e+00 0.000000e+00 0.000000e+00
1
Step 218000
Ar 1.110817e+00 0.000000e+00 0.000000e+00
1
Step 219000
Ar 1.130279e+00 0.000000e+00 0.000000e+00
1
Step 220000
Ar 1.097756e+00 0.000000e+00 0.000000e+00
1
Step 221000
Ar 1.112684e+00 0.000000e+00 0.000000e+00
1
Step 222000
Ar 1.120736e+00 0.000000e+00 0.000000e+00
1
Step 223000
Ar 1.120929e+00 0.000000e+00 0.000000e+00
1
Step 224000
Ar 1.116694e+00 0.000000e+00 0.000000e+00
1
Step 225000
Ar 1.131924e+00 0.000000e+00 0.000000e+00
1
Step 226000
Ar 1.116129e+00 0.000000e+00 0.000000e+00
1
Step 227000
Ar 1.115996e+00 0.000000e+00 0.000000e+00
1
Step 228000
Ar 1.115038e+00 0.000000e+00 0.000000e+00
1
Step 229000
Ar 1.119688e+00 0.000000e+00 0.000000e+00
1
Step 230000
Ar 1.113157e+00 0.000000e+00 0.000000e+00
1
Step 231000
Ar 9.411068e-01 0.000000e+00 0.000000e+00
1
Step 232000
Ar 9.572960e-01 0.000000e+00 0.000000e+00
1
Step 233000
Ar 9.486905e-01 0.000000e+00 0.000000e+00
1
Step 234000
Ar 9.425248e-01 0.000000e+00 0.000000e+00
1
Step 235000
Ar 9.600819e-01 0.000000e+00 0.000000e+00
1
Step 236000
Ar 7.580944e-01 0.000000e+00 0.000000e+00
1
Step 237000
Ar 7.513038e-01 0.000000e+00 0.000000e+00
1
Step 238000
Ar 7.647070e-01 0.000000e+00 0.000000e+00
1
Step 239000
Ar 7.543014e-01 0.000000e+00 0.000000e+00
1
Step 240000
Ar 7.537638e-01 0.000000e+00 0.000000e+00
1
Step 241000
Ar 8.127717e-01 0.000000e+00 0.000000e+00
1
Step 242000
Ar 8.212577e-01 0.000000e+00 0.000000e+00
1
Step 243000
Ar 8.178361e-01 0.000000e+00 0.000000e+00
1
Step 244000
Ar 8.092444e-01 0.000000e+00 0.000000e+00
1
Step 245000
Ar 8.213116e-01 0.000000e+00 0.000000e+00
1
Step 246000
Ar 7.793498e-01 0.000000e+00 0.000000e+00
1
Step 247000
Ar 7.816889e-01 0.000000e+00 0.000000e+00
1
Step 248000
Ar 7.750468e-01 0.000000e+00 0.000000e+00
1
Step 249000
Ar 7.788289e-01 0.000000e+00 0.000000e+00
1
Step 250000
Ar 7.813282e-01 0.000000e+00 0.000000e+00
1
Step 251000
Ar 9.429170e-01 0.000000e+00 0.000000e+00
1
Step 252000
Ar 9.480316e-01 0.000000e+00 0.000000e+00
1
Step 253000
Ar 9.339054e-01 0.000000e+00 0.000000e+00
1
Step 254000
Ar 9.389131e-01 0.000000e+00 0.000000e+00
1
Step 255000
Ar 9.418810e-01 0.000000e+00 0.000000e+00
1
Step 256000
Ar 9.997785e-01 0.000000e+00 0.000000e+00
1
Step 257000
Ar 9.930573e-01 0.000000e+00 0.000000e+00
1
Step 258000
Ar 9.945683e-01 0.000000e+00 0.000000e+00
1
Step 259000
Ar 1.006366e+00 0.000000e+00 0.000000e+00
1
Step 260000
Ar 1.005823e+00 0.000000e+00 0.000000e+00
1
Step 261000
Ar 1.068823e+00 0.000000e+00 0.000000e+00
1
Step 262000
Ar 1.064967e+00 0.000000e+00 0.000000e+00
1
Step 263000
Ar 1.071357e+00 0.000000e+00 0.000000e+00
1
Step 264000
Ar 1.070293e+00 0.000000e+00 0.000000e+00
1
Step 265000
Ar 1.066385e+00 0.000000e+00 0.000000e+00
1
Step 266000
Ar 8.794671e-01 0.000000e+00 0.000000e+00
1
Step 267000
Ar 8.629389e-01 0.000000e+00 0.000000e+00
1
Step 268000
Ar 8.759650e-01 0.000000e+00 0.000000e+00
1
Step 269000
Ar 8.933863e-01 0.000000e+00 0.000000e+00
1
Step 270000
Ar 8.923285e-01 0.000000e+00 0.000000e+00
1
Step 271000
Ar 1.236357e+00 0.000000e+00 0.000000e+00
1
Step 272000
Ar 1.321119e+00 0.000000e+00 0.000000e+00
1
Step 273000
Ar 1.240570e+00 0.000000e+00 0.000000e+00
1
Step 274000
Ar 1.239728e+00 0.000000e+00 0.000000e+00
1
Step 275000
Ar 1.292007e+00 0.000000e+00 0.000000e+00
1
Step 276000
Ar 1.304678e+00 0.000000e+00 0.000000e+00
1
Step 277000
Ar 1.341360e+00 0.000000e+00 0.000000e+00
1
Step 278000
Ar 1.318789e+00 0.000000e+00 0.000000e+00
1
Step 279000
Ar 1.310097e+00 0.000000e+00 0.000000e+00
1
Step 280000
Ar 1.336639e+00 0.000000e+00 0.000000e+00
1
Step 281000
Ar 1.318257e+00 0.000000e+00 0.000000e+00
1
Step 282000
Ar 1.313481e+00 0.000000e+00 0.000000e+00
1
Step 283000
Ar 1.318942e+00 0.000000e+00 0.000000e+00
1
Step 284000
Ar 1.307390e+00 0.000000e+00 0.000000e+00
1
Step 285000
Ar 1.308900e+00 0.000000e+00 0.000000e+00
1
Step 286000
Ar 9.943428e-01 0.000000e+00 0.000000e+00
1
Step 287000
Ar 9.949394e-01 0.000000e+00 0.000000e+00
1
Step 288000
Ar 9.940025e-01 0.000000e+00 0.000000e+00
1
Step 289000
Ar 9.936691e-01 0.000000e+00 0.000000e+00
1
Step 290000
Ar 9.918064e-01 0.000000e+00 0.000000e+00
1
Step 291000
Ar 8.119267e-01 0.000000e+00 0.000000e+00
1
Step 292000
Ar 8.074906e-01 0.000000e+00 0.000000e+00
1
Step 293000
Ar 8.090130e-01 0.000000e+00 0.000000e+00
1
Step 294000
Ar 8.086627e-01 0.000000e+00 0.000000e+00
1
Step 295000
Ar 8.095635e-01 0.000000e+00 0.000000e+00
1
Step 296000
Ar 6.085066e-01 0.000000e+00 0.000000e+00
1
Step 297000
Ar 3.701318e-01 0.000000e+00 0.000000e+00
1
Step 298000
Ar 5.983988e-01 0.000000e+00 0.000000e+00
1
Step 299000
Ar 6.202939e-01 0.000000e+00 0.000000e+00
1
Step 300000
Ar 5.974376e-01 0.000000e+00 0.000000e+00
1
Step 301000
Ar 5.018948e-01 0.000000e+00 0.000000e+00
1
Step 302000
Ar 5.445062e-01 0.000000e+00 0.000000e+00
1
Step 303000
Ar 5.860122e-01 0.000000e+00 0.000000e+00
1
Step 304000
Ar 5.599014e-01 0.000000e+00 0.000000e+00
1
Step 305000
Ar 5.619604e-01 0.000000e+00 0.000000e+00
1
Step 306000
Ar 1.214543e+00 0.000000e+00 0.000000e+00
1
Step 307000
Ar 1.214852e+00 0.000000e+00 0.000000e+00
1
Step 308000
Ar 1.273896e+00 0.000000e+00 0.000000e+00
1
Step 309000
Ar 1.256252e+00 0.000000e+00 0.000000e+00
1
Step 310000
Ar 1.265173e+00 0.000000e+00 0.000000e+00
1
Step 311000
Ar 1.374052e+00 0.000000e+00 0.000000e+00
1
Step 312000
Ar 1.348132e+00 0.000000e+00 0.000000e+00
1
Step 313000
Ar 1.351022e+00 0.000000e+00 0.000000e+00
1
Step 314000
Ar 1.391451e+00 0.000000e+00 0.000000e+00
1
Step 315000
Ar 1.373719e+00 0.000000e+00 0.000000e+00
1
Step 316000
Ar 1.254165e+00 0.000000e+00 0.000000e+00
1
Step 317000
Ar 1.240354e+00 0.000000e+00 0.000000e+00
1
Step 318000
Ar 1.249221e+00 0.000000e+00 0.000000e+00
1
Step 319000
Ar 1.256736e+00 0.000000e+00 0.000000e+00
1
Step 320000
Ar 1.242215e+00 0.000000e+00 0.000000e+00
1
Step 321000
Ar 1.279776e+00 0.000000e+00 0.000000e+00
1
Step 322000
Ar 1.279019e+00 0.000000e+00 0.000000e+00
1
Step 323000
Ar 1.284792e+00 0.000000e+00 0.000000e+00
1
Step 324000
Ar 1.278976e+00 0.000000e+00 0.000000e+00
1
Step 325000
Ar 1.270655e+00 0.000000e+00 0.000000e+00
1
Step 326000
Ar 1.351417e+00 0.000000e+00 0.000000e+00
1
Step 327000
Ar 1.350342e+00 0.000000e+00 0.000000e+00
1
Step 328000
Ar 1.350934e+00 0.000000e+00 0.000000e+00
1
Step 329000
Ar 1.359276e+00 0.000000e+00 0.000000e+00
1
Step 330000
Ar 1.353631e+00 0.000000e+00 0.000000e+00
1
Step 331000
Ar 1.389758e+00 0.000000e+00 0.000000e+00
1
Step 332000
Ar 1.407887e+00 0.000000e+00 0.000000e+00
1
Step 333000
Ar 1.397704e+00 0.000000e+00 0.000000e+00
1
Step 334000
Ar 1.395013e+00 0.000000e+00 0.000000e+00
1
Step 335000
Ar 1.404432e+00 0.000000e+00 0.000000e+00
1
Step 336000
Ar 1.448897e+00 0.000000e+00 0.000000e+00
1
Step 337000
Ar 1.419146e+00 0.000000e+00 0.000000e+00
1
Step 338000
Ar 1.438356e+00 0.000000e+00 0.000000e+00
1
Step 339000
Ar 1.434045e+00 0.000000e+00 0.000000e+00
1
Step 340000
Ar 1.437551e+00 0.000000e+00 0.000000e+00
1
Step 341000
Ar 8.691096e-01 0.000000e+00 0.000000e+00
1
Step 342000
Ar 8.642104e-01 0.000000e+00 0.000000e+00
1
Step 343000
Ar 8.725281e-01 0.000000e+00 0.000000e+00
1
Step 344000
Ar 8.737255e-01 0.000000e+00 0.000000e+00
1
Step 345000
Ar 8.787295e-01 0.000000e+00 0.000000e+00
1
Step 346000
Ar 1.017221e+00 0.000000e+00 0.000000e+00
1
Step 347000
Ar 1.014475e+00 0.000000e+00 0.000000e+00
1
Step 348000
Ar 1.016116e+00 0.000000e+00 0.000000e+00
1
Step 349000
Ar 1.015190e+00 0.000000e+00 0.000000e+00
1
Step 350000
Ar 1.014702e+00 0.000000e+00 0.000000e+00
1
Step 351000
Ar 7.293040e-01 0.000000e+00 0.000000e+00
1
Step 352000
Ar 7.361618e-01 0.000000e+00 0.000000e+00
1
Step 353000
Ar 7.396337e-01 0.000000e+00 0.000000e+00
1
Step 354000
Ar 7.369940e-01 0.000000e+00 0.000000e+00
1
Step 355000
Ar 7.345996e-01 0.000000e+00 0.000000e+00
1
Step 356000
Ar 1.032606e+00 0.000000e+00 0.000000e+00
1
Step 357000
Ar 1.033290e+00 0.000000e+00 0.000000e+00
1
Step 358000
Ar 1.417794e+00 0.000000e+00 0.000000e+00
1
Step 359000
Ar 1.419438e+00 0.000000e+00 0.000000e+00
1
Step 360000
Ar 1.419151e+00 0.000000e+00 0.000000e+00
1
Step 361000
Ar 1.459275e+00 0.000000e+00 0.000000e+00
1
Step 362000
Ar 1.446418e+00 0.000000e+00 0.000000e+00
1
Step 363000
Ar 1.457306e+00 0.000000e+00 0.000000e+00
1
Step 364000
Ar 1.495178e+00 0.000000e+00 0.000000e+00
1
Step 365000
Ar 1.457388e+00 0.000000e+00 0.000000e+00
1
Step 366000
Ar 1.448745e+00 0.000000e+00 0.000000e+00
1
Step 367000
Ar 1.445296e+00 0.000000e+00 0.000000e+00
1
Step 368000
Ar 1.448842e+00 0.000000e+00 0.000000e+00
1
Step 369000
Ar 1.452355e+00 0.000000e+00 0.000000e+00
1
Step 370000
Ar 1.156873e+00 0.000000e+00 0.000000e+00
1
Step 371000
Ar 1.491567e+00 0.000000e+00 0.000000e+00
1
Step 372000
Ar 1.480738e+00 0.000000e+00 0.000000e+00
1
Step 373000
Ar 1.484077e+00 0.000000e+00 0.000000e+00
1
Step 374000
Ar 1.477333e+00 0.000000e+00 0.000000e+00
1
Step 375000
Ar 1.474575e+00 0.000000e+00 0.000000e+00
1
Step 376000
Ar 1.488273e+00 0.000000e+00 0.000000e+00
1
Step 377000
Ar 1.493762e+00 0.000000e+00 0.000000e+00
1
Step 378000
Ar 1.530745e+00 0.000000e+00 0.000000e+00
1
Step 379000
Ar 1.487041e+00 0.000000e+00 0.000000e+00
1
Step 380000
Ar 1.495510e+00 0.000000e+00 0.000000e+00
1
Step 381000
Ar 1.522020e+00 0.000000e+00 0.000000e+00
1
Step 382000
Ar 1.548806e+00 0.000000e+00 0.000000e+00
1
Step 383000
Ar 1.511224e+00 0.000000e+00 0.000000e+00
1
Step 384000
Ar 1.518070e+00 0.000000e+00 0.000000e+00
1
Step 385000
Ar 1.517056e+00 0.000000e+00 0.000000e+00
1
Step 386000
Ar 1.321981e+00 0.000000e+00 0.000000e+00
1
Step 387000
Ar 1.319988e+00 0.000000e+00 0.000000e+00
1
Step 388000
Ar 1.325161e+00 0.000000e+00 0.000000e+00
1
Step 389000
Ar 1.323414e+00 0.000000e+00 0.000000e+00
1
Step 390000
Ar 1.322183e+00 0.000000e+00 0.000000e+00
1
Step 391000
Ar 1.429523e+00 0.000000e+00 0.000000e+00
1
Step 392000
Ar 1.279742e+00 0.000000e+00 0.000000e+00
1
Step 393000
Ar 1.280220e+00 0.000000e+00 0.000000e+00
1
Step 394000
Ar 1.284129e+00 0.000000e+00 0.000000e+00
1
Step 395000
Ar 1.278722e+00 0.000000e+00 0.000000e+00
1
Step 396000
Ar 1.541261e+00 0.000000e+00 0.000000e+00
1
Step 397000
Ar 1.561804e+00 0.000000e+00 0.000000e+00
1
Step 398000
Ar 1.562938e+00 0.000000e+00 0.000000e+00
1
Step 399000
Ar 1.534242e+00 0.000000e+00 0.000000e+00
1
Step 400000
Ar 1.539831e+00 0.000000e+00 0.000000e+00
1
Step 401000
Ar 6.704092e-01 0.000000e+00 0.000000e+00
1
Step 402000
Ar 6.872365e-01 0.000000e+00 0.000000e+00
1
Step 403000
Ar 6.863979e-01 0.000000e+00 0.000000e+00
1
Step 404000
Ar 6.833798e-01 0.000000e+00 0.000000e+00
1
Step 405000
Ar 6.795709e-01 0.000000e+00 0.000000e+00
1
Step 406000
Ar 7.883012e-01 0.000000e+00 0.000000e+00
1
Step 407000
Ar 1.190391e+00 0.000000e+00 0.000000e+00
1
Step 408000
Ar -4.531098e-01 0.000000e+00 0.000000e+00
1
Step 409000
Ar -9.825956e-01 0.000000e+00 0.000000e+00
1
Step 410000
Ar -9.037881e-01 0.000000e+00 0.000000e+00
1
Step 411000
Ar -1.027241e+00 0.000000e+00 0.000000e+00
1
Step 412000
Ar -9.756727e-01 0.000000e+00 0.000000e+00
1
Step 413000
Ar -1.070964e+00 0.000000e+00 0.000000e+00
1
Step 414000
Ar -1.074318e+00 0.000000e+00 0.000000e+00
1
Step 415000
Ar -1.023403e+00 0.000000e+00 0.000000e+00
1
Step 416000
Ar -1.071338e+00 0.000000e+00 0.000000e+00
1
Step 417000
Ar -1.112110e+00 0.000000e+00 0.000000e+00
1
Step 418000
Ar -1.041312e+00 0.000000e+00 0.000000e+00
1
Step 419000
Ar -1.204568e+00 0.000000e+00 0.000000e+00
1
Step 420000
Ar -1.071947e+00 0.000000e+00 0.000000e+00
1
Step 421000
Ar -1.106308e+00 0.000000e+00 0.000000e+00
1
Step 422000
Ar -1.232199e+00 0.000000e+00 0.000000e+00
1
Step 423000
Ar -1.085356e+00 0.000000e+00 0.000000e+00
1
Step 424000
Ar -1.108002e+00 0.000000e+00 0.000000e+00
1
Step 425000
Ar -1.120971e+00 0.000000e+00 0.000000e+00
1
Step 426000
Ar -1.099230e+00 0.000000e+00 0.000000e+00
1
Step 427000
Ar -1.086282e+00 0.000000e+00 0.000000e+00
1
Step 428000
Ar -1.085707e+00 0.000000e+00 0.000000e+00
1
Step 429000
Ar -1.094589e+00 0.000000e+00 0.000000e+00
1
Step 430000
Ar -1.097598e+00 0.000000e+00 0.000000e+00
1
Step 431000
Ar -1.038547e+00 0.000000e+00 0.000000e+00
1
Step 432000
Ar -1.042825e+00 0.000000e+00 0.000000e+00
1
Step 433000
Ar -1.039703e+00 0.000000e+00 0.000000e+00
1
Step 434000
Ar -1.037656e+00 0.000000e+00 0.000000e+00
1
Step 435000
Ar -1.049752e+00 0.000000e+00 0.000000e+00
1
Step 436000
Ar -9.479394e-01 0.000000e+00 0.000000e+00
1
Step 437000
Ar -9.846870e-01 0.000000e+00 0.000000e+00
1
Step 438000
Ar -9.645239e-01 0.000000e+00 0.000000e+00
1
Step 439000
Ar -9.551957e-01 0.000000e+00 0.000000e+00
1
Step 440000
Ar -9.524468e-01 0.000000e+00 0.000000e+00
1
Step 441000
Ar -9.236819e-01 0.000000e+00 0.000000e+00
1
Step 442000
Ar -9.386873e-01 0.000000e+00 0.000000e+00
1
Step 443000
Ar -9.286377e-01 0.000000e+00 0.000000e+00
1
Step 444000
Ar -9.289163e-01 0.000000e+00 0.000000e+00
1
Step 445000
Ar -9.207111e-01 0.000000e+00 0.000000e+00
1
Step 446000
Ar -9.304195e-01 0.000000e+00 0.000000e+00
1
Step 447000
Ar -9.323759e-01 0.000000e+00 0.000000e+00
1
Step 448000
Ar -9.322718e-01 0.000000e+00 0.000000e+00
1
Step 449000
Ar -9.349415e-01 0.000000e+00 0.000000e+00
1
Step 450000
Ar -9.299616e-01 0.000000e+00 0.000000e+00
1
Step 451000
Ar -9.970057e-01 0.000000e+00 0.000000e+00
1
Step 452000
Ar -9.984657e-01 0.000000e+00 0.000000e+00
1
Step 453000
Ar -1.004570e+00 0.000000e+00 0.000000e+00
1
Step 454000
Ar -1.006967e+00 0.000000e+00 0.000000e+00
1
Step 455000
Ar -9.677541e-01 0.000000e+00 0.000000e+00
1
Step 456000
Ar -9.864825e-01 0.000000e+00 0.000000e+00
1
Step 457000
Ar -9.899137e-01 0.000000e+00 0.000000e+00
1
Step 458000
Ar -9.931867e-01 0.000000e+00 0.000000e+00
1
Step 459000
Ar -9.968312e-01 0.000000e+00 0.000000e+00
1
Step 460000
Ar -1.005244e+00 0.000000e+00 0.000000e+00
1
Step 461000
Ar -1.169492e+00 0.000000e+00 0.000000e+00
1
Step 462000
Ar -1.219391e+00 0.000000e+00 0.000000e+00
1
Step 463000
Ar -1.157304e+00 0.000000e+00 0.000000e+00
1
Step 464000
Ar -1.270292e+00 0.000000e+00 0.000000e+00
1
Step 465000
Ar -1.151030e+00 0.000000e+00 0.000000e+00
1
Step 466000
Ar -1.187553e+00 0.000000e+00 0.000000e+00
1
Step 467000
Ar -1.205944e+00 0.000000e+00 0.000000e+00
1
Step 468000
Ar -1.295123e+00 0.000000e+00 0.000000e+00
1
Step 469000
Ar -1.167539e+00 0.000000e+00 0.000000e+00
1
Step 470000
Ar -1.196242e+00 0.000000e+00 0.000000e+00
1
Step 471000
Ar -1.230521e+00 0.000000e+00 0.000000e+00
1
Step 472000
Ar -1.275138e+00 0.000000e+00 0.000000e+00
1
Step 473000
Ar -1.242920e+00 0.000000e+00 0.000000e+00
1
Step 474000
Ar -1.242223e+00 0.000000e+00 0.000000e+00
1
Step 475000
Ar -1.244173e+00 0.000000e+00 0.000000e+00
1
Step 476000
Ar -1.257379e+00 0.000000e+00 0.000000e+00
1
Step 477000
Ar -1.316205e+00 0.000000e+00 0.000000e+00
1
Step 478000
Ar -1.315986e+00 0.000000e+00 0.000000e+00
1
Step 479000
Ar -1.280139e+00 0.000000e+00 0.000000e+00
1
Step 480000
Ar -1.258033e+00 0.000000e+00 0.000000e+00
1
Step 481000
Ar -1.134737e+00 0.000000e+00 0.000000e+00
1
Step 482000
Ar -1.134240e+00 0.000000e+00 0.000000e+00
1
Step 483000
Ar -1.138143e+00 0.000000e+00 0.000000e+00
1
Step 484000
Ar -1.137740e+00 0.000000e+00 0.000000e+00
1
Step 485000
Ar -1.141354e+00 0.000000e+00 0.000000e+00
1
Step 486000
Ar -1.112244e+00 0.000000e+00 0.000000e+00
1
Step 487000
Ar -1.108638e+00 0.000000e+00 0.000000e+00
1
Step 488000
Ar -1.106736e+00 0.000000e+00 0.000000e+00
1
Step 489000
Ar -1.111070e+00 0.000000e+00 0.000000e+00
1
Step 490000
Ar -1.108288e+00 0.000000e+00 0.000000e+00
1
Step 491000
Ar -1.064430e+00 0.000000e+00 0.000000e+00
1
Step 492000
Ar -1.062974e+00 0.000000e+00 0.000000e+00
1
Step 493000
Ar -1.060530e+00 0.000000e+00 0.000000e+00
1
Step 494000
Ar -1.063629e+00 0.000000e+00 0.000000e+00
1
Step 495000
Ar -1.061673e+00 0.000000e+00 0.000000e+00
1
Step 496000
Ar -8.835169e-01 0.000000e+00 0.000000e+00
1
Step 497000
Ar -8.047316e-01 0.000000e+00 0.000000e+00
1
Step 498000
Ar -8.928917e-01 0.000000e+00 0.000000e+00
1
Step 499000
Ar -7.767016e-01 0.000000e+00 0.000000e+00
1
Step 500000
Ar -7.134544e-01 0.000000e+00 0.000000e+00
1
Step 501000
Ar -6.694693e-01 0.000000e+00 0.000000e+00
1
Step 502000
Ar -6.974048e-01 0.000000e+00 0.000000e+00
1
Step 503000
Ar -6.695209e-01 0.000000e+00 0.000000e+00
1
Step 504000
Ar -6.849498e-01 0.000000e+00 0.000000e+00
1
Step 505000
Ar -6.373742e-01 0.000000e+00 0.000000e+00
1
Step 506000
Ar -8.290382e-01 0.000000e+00 0.000000e+00
1
Step 507000
Ar -8.894256e-01 0.000000e+00 0.000000e+00
1
Step 508000
Ar -8.675259e-01 0.000000e+00 0.000000e+00
1
Step 509000
Ar -8.825113e-01 0.000000e+00 0.000000e+00
1
Step 510000
Ar -8.682595e-01 0.000000e+00 0.000000e+00
1
Step 511000
Ar -8.883214e-01 0.000000e+00 0.000000e+00
1
Step 512000
Ar -8.848536e-01 0.000000e+00 0.000000e+00
1
Step 513000
Ar -8.861881e-01 0.000000e+00 0.000000e+00
1
Step 514000
Ar -8.854649e-01 0.000000e+00 0.000000e+00
1
Step 515000
Ar -8.904776e-01 0.000000e+00 0.000000e+00
1
Step 516000
Ar -6.016517e-01 0.000000e+00 0.000000e+00
1
Step 517000
Ar -5.837738e-01 0.000000e+00 0.000000e+00
1
Step 518000
Ar -5.694695e-01 0.000000e+00 0.000000e+00
1
Step 519000
Ar -5.879965e-01 0.000000e+00 0.000000e+00
1
Step 520000
Ar -5.962157e-01 0.000000e+00 0.000000e+00
1
Step 521000
Ar -6.244661e-01 0.000000e+00 0.000000e+00
1
Step 522000
Ar -6.223759e-01 0.000000e+00 0.000000e+00
1
Step 523000
Ar -6.085708e-01 0.000000e+00 0.000000e+00
1
Step 524000
Ar -6.101812e-01 0.000000e+00 0.000000e+00
1
Step 525000
Ar -6.202659e-01 0.000000e+00 0.000000e+00
1
Step 526000
Ar -6.945161e-01 0.000000e+00 0.000000e+00
1
Step 527000
Ar -6.967550e-01 0.000000e+00 0.000000e+00
1
Step 528000
Ar -6.770715e-01 0.000000e+00 0.000000e+00
1
Step 529000
Ar -6.566915e-01 0.000000e+00 0.000000e+00
1
Step 530000
Ar -6.709891e-01 0.000000e+00 0.000000e+00
1
Step 531000
Ar -6.573780e-01 0.000000e+00 0.000000e+00
1
Step 532000
Ar -6.502505e-01 0.000000e+00 0.000000e+00
1
Step 533000
Ar -6.540344e-01 0.000000e+00 0.000000e+00
1
Step 534000
Ar -6.498849e-01 0.000000e+00 0.000000e+00
1
Step 535000
Ar -6.532848e-01 0.000000e+00 0.000000e+00
1
Step 536000
Ar -6.959525e-01 0.000000e+00 0.000000e+00
1
Step 537000
Ar -6.895371e-01 0.000000e+00 0.000000e+00
1
Step 538000
Ar -7.011984e-01 0.000000e+00 0.000000e+00
1
Step 539000
Ar -6.989645e-01 0.000000e+00 0.000000e+00
1
Step 540000
Ar -6.945094e-01 0.000000e+00 0.000000e+00
1
Step 541000
Ar -6.806206e-01 0.000000e+00 0.000000e+00
1
Step 542000
Ar -6.887285e-01 0.000000e+00 0.000000e+00
1
Step 543000
Ar -6.820181e-01 0.000000e+00 0.000000e+00
1
Step 544000
Ar -6.846330e-01 0.000000e+00 0.000000e+00
1
Step 545000
Ar -6.828344e-01 0.000000e+00 0.000000e+00
1
Step 546000
Ar -8.101864e-01 0.000000e+00 0.000000e+00
1
Step 547000
Ar -7.988804e-01 0.000000e+00 0.000000e+00
1
Step 548000
Ar -8.506798e-01 0.000000e+00 0.000000e+00
1
Step 549000
Ar -7.786319e-01 0.000000e+00 0.000000e+00
1
Step 550000
Ar -8.500984e-01 0.000000e+00 0.000000e+00
1
Step 551000
Ar -7.702883e-01 0.000000e+00 0.000000e+00
1
Step 552000
Ar -7.920363e-01 0.000000e+00 0.000000e+00
1
Step 553000
Ar -7.930784e-01 0.000000e+00 0.000000e+00
1
Step 554000
Ar -8.086362e-01 0.000000e+00 0.000000e+00
1
Step 555000
Ar -7.479957e-01 0.000000e+00 0.000000e+00
1
Step 556000
Ar -7.383856e-01 0.000000e+00 0.000000e+00
1
Step 557000
Ar -7.346182e-01 0.000000e+00 0.000000e+00
1
Step 558000
Ar -7.333565e-01 0.000000e+00 0.000000e+00
1
Step 559000
Ar -7.321148e-01 0.000000e+00 0.000000e+00
1
Step 560000
Ar -7.254280e-01 0.000000e+00 0.000000e+00
1
Step 561000
Ar -8.082166e-01 0.000000e+00 0.000000e+00
1
Step 562000
Ar -8.080028e-01 0.000000e+00 0.000000e+00
1
Step 563000
Ar -8.021653e-01 0.000000e+00 0.000000e+00
1
Step 564000
Ar -8.196299e-01 0.000000e+00 0.000000e+00
1
Step 565000
Ar -8.292506e-01 0.000000e+00 0.000000e+00
1
Step 566000
Ar -8.130492e-01 0.000000e+00 0.000000e+00
1
Step 567000
Ar -7.630592e-01 0.000000e+00 0.000000e+00
1
Step 568000
Ar -8.073834e-01 0.000000e+00 0.000000e+00
1
Step 569000
Ar -7.959979e-01 0.000000e+00 0.000000e+00
1
Step 570000
Ar -7.750542e-01 0.000000e+00 0.000000e+00
1
Step 571000
Ar -1.037751e+00 0.000000e+00 0.000000e+00
1
Step 572000
Ar -1.034739e+00 0.000000e+00 0.000000e+00
1
Step 573000
Ar -1.036905e+00 0.000000e+00 0.000000e+00
1
Step 574000
Ar -1.035149e+00 0.000000e+00 0.000000e+00
1
Step 575000
Ar -1.035357e+00 0.000000e+00 0.000000e+00
1
Step 576000
Ar -9.897935e-01 0.000000e+00 0.000000e+00
1
Step 577000
Ar -9.893143e-01 0.000000e+00 0.000000e+00
1
Step 578000
Ar -9.796768e-01 0.000000e+00 0.000000e+00
1
Step 579000
Ar -9.887109e-01 0.000000e+00 0.000000e+00
1
Step 580000
Ar -9.887318e-01 0.000000e+00 0.000000e+00
1
Step 581000
Ar -8.110436e-01 0.000000e+00 0.000000e+00
1
Step 582000
Ar -8.050587e-01 0.000000e+00 0.000000e+00
1
Step 583000
Ar -8.109816e-01 0.000000e+00 0.000000e+00
1
Step 584000
Ar -7.940622e-01 0.000000e+00 0.000000e+00
1
Step 585000
Ar -7.993792e-01 0.000000e+00 0.000000e+00
1
Step 586000
Ar -7.888649e-01 0.000000e+00 0.000000e+00
1
Step 587000
Ar -7.884478e-01 0.000000e+00 0.000000e+00
1
Step 588000
Ar -7.881480e-01 0.000000e+00 0.000000e+00
1
Step 589000
Ar -8.291056e-01 0.000000e+00 0.000000e+00
1
Step 590000
Ar -8.167184e-01 0.000000e+00 0.000000e+00
1
Step 591000
Ar -7.895713e-01 0.000000e+00 0.000000e+00
1
Step 592000
Ar -7.872832e-01 0.000000e+00 0.000000e+00
1
Step 593000
Ar -7.877852e-01 0.000000e+00 0.000000e+00
1
Step 594000
Ar -7.837576e-01 0.000000e+00 0.000000e+00
1
Step 595000
Ar -7.833389e-01 0.000000e+00 0.000000e+00
1
Step 596000
Ar -8.081408e-01 0.000000e+00 0.000000e+00
1
Step 597000
Ar -8.390212e-01 0.000000e+00 0.000000e+00
1
Step 598000
Ar -8.383672e-01 0.000000e+00 0.000000e+00
1
Step 599000
Ar -8.401036e-01 0.000000e+00 0.000000e+00
1
Step 600000
Ar -8.976136e-01 0.000000e+00 0.000000e+00
1
Step 601000
Ar -9.409362e-01 0.000000e+00 0.000000e+00
1
Step 602000
Ar -9.414499e-01 0.000000e+00 0.000000e+00
1
Step 603000
Ar -9.408834e-01 0.000000e+00 0.000000e+00
1
Step 604000
Ar -9.376961e-01 0.000000e+00 0.000000e+00
1
Step 605000
Ar -9.417932e-01 0.000000e+00 0.000000e+00
1
Step 606000
Ar -1.270242e+00 0.000000e+00 0.000000e+00
1
Step 607000
Ar -1.329230e+00 0.000000e+00 0.000000e+00
1
Step 608000
Ar -1.282689e+00 0.000000e+00 0.000000e+00
1
Step 609000
Ar -1.363622e+00 0.000000e+00 0.000000e+00
1
Step 610000
Ar -1.275108e+00 0.000000e+00 0.000000e+00
1
Step 611000
Ar -1.295621e+00 0.000000e+00 0.000000e+00
1
Step 612000
Ar -1.289574e+00 0.000000e+00 0.000000e+00
1
Step 613000
Ar -1.291963e+00 0.000000e+00 0.000000e+00
1
Step 614000
Ar -1.287804e+00 0.000000e+00 0.000000e+00
1
Step 615000
Ar -1.312436e+00 0.000000e+00 0.000000e+00
1
Step 616000
Ar -1.289424e+00 0.000000e+00 0.000000e+00
1
Step 617000
Ar -1.292122e+00 0.000000e+00 0.000000e+00
1
Step 618000
Ar -1.291427e+00 0.000000e+00 0.000000e+00
1
Step 619000
Ar -1.299737e+00 0.000000e+00 0.000000e+00
1
Step 620000
Ar -1.294283e+00 0.000000e+00 0.000000e+00
1
Step 621000
Ar -1.476623e+00 0.000000e+00 0.000000e+00
1
Step 622000
Ar -1.333446e+00 0.000000e+00 0.000000e+00
1
Step 623000
Ar -1.336788e+00 0.000000e+00 0.000000e+00
1
Step 624000
Ar -1.340676e+00 0.000000e+00 0.000000e+00
1
Step 625000
Ar -1.328121e+00 0.000000e+00 0.000000e+00
1
Step 626000
Ar -1.371682e+00 0.000000e+00 0.000000e+00
1
Step 627000
Ar -1.344609e+00 0.000000e+00 0.000000e+00
1
Step 628000
Ar -1.390062e+00 0.000000e+00 0.000000e+00
1
Step 629000
Ar -1.352646e+00 0.000000e+00 0.000000e+00
1
Step 630000
Ar -1.370525e+00 0.000000e+00 0.000000e+00
1
Step 631000
Ar -1.085106e+00 0.000000e+00 0.000000e+00
1
Step 632000
Ar -1.088669e+00 0.000000e+00 0.000000e+00
1
Step 633000
Ar -1.086577e+00 0.000000e+00 0.000000e+00
1
Step 634000
Ar -1.086087e+00 0.000000e+00 0.000000e+00
1
Step 635000
Ar -1.079454e+00 0.000000e+00 0.000000e+00
1
Step 636000
Ar -1.211399e+00 0.000000e+00 0.000000e+00
1
Step 637000
Ar -1.221154e+00 0.000000e+00 0.000000e+00
1
Step 638000
Ar -1.213556e+00 0.000000e+00 0.000000e+00
1
Step 639000
Ar -1.214967e+00 0.000000e+00 0.000000e+00
1
Step 640000
Ar -1.218350e+00 0.000000e+00 0.000000e+00
1
Step 641000
Ar -1.165029e+00 0.000000e+00 0.000000e+00
1
Step 642000
Ar -1.175984e+00 0.000000e+00 0.000000e+00
1
Step 643000
Ar -1.172393e+00 0.000000e+00 0.000000e+00
1
Step 644000
Ar -1.165793e+00 0.000000e+00 0.000000e+00
1
Step 645000
Ar -1.174747e+00 0.000000e+00 0.000000e+00
1
Step 646000
Ar -1.161016e+00 0.000000e+00 0.000000e+00
1
Step 647000
Ar -1.163451e+00 0.000000e+00 0.000000e+00
1
Step 648000
Ar -1.161670e+00 0.000000e+00 0.000000e+00
1
Step 649000
Ar -1.156718e+00 0.000000e+00 0.000000e+00
1
Step 650000
Ar -1.159512e+00 0.000000e+00 0.000000e+00
1
Step 651000