1
Step 120000
Ar 9.719847e-01 0.000000e+00 0.000000e+00
1
Step 121000
Ar 1.040909e+00 0.000000e+00 0.000000e+00
1
Step 122000
Ar 7.774267e-01 0.000000e+00 0.000000e+00
1
Step 123000
Ar 1.015968e+00 0.000000e+00 0.000000e+00
1
Step 124000
Ar 8.952666e-01 0.000000e+00 0.000000e+00
1
Step 125000
Ar 1.014303e+00 0.000000e+00 0.000000e+00
1
Step 126000
Ar 1.188831e+00 0.000000e+00 0.000000e+00
1
Step 127000
Ar 1.030318e+00 0.000000e+00 0.000000e+00
1
Step 128000
Ar 1.067680e+00 0.000000e+00 0.000000e+00
1
Step 129000
Ar 1.063133e+00 0.000000e+00 0.000000e+00
1
Step 130000
Ar 1.166425e+00 0.000000e+00 0.000000e+00
1
Step 131000
Ar 1.198958e+00 0.000000e+00 0.000000e+00
1
Step 132000
Ar 1.251296e+00 0.000000e+00 0.000000e+00
1
Step 133000
Ar 1.173758e+00 0.000000e+00 0.000000e+00
1
Step 134000
Ar 1.200945e+00 0.000000e+00 0.000000e+00
1
Step 135000
Ar 9.474250e-01 0.000000e+00 0.000000e+00
1
Step 136000
Ar 8.192611e-01 0.000000e+00 0.000000e+00
1
Step 137000
Ar 7.771515e-01 0.000000e+00 0.000000e+00
1
Step 138000
Ar 7.694842e-01 0.000000e+00 0.000000e+00
1
Step 139000
Ar 8.724850e-01 0.000000e+00 0.000000e+00
1
Step 140000
Ar 6.117828e-01 0.000000e+00 0.000000e+00
1
Step 141000
Ar 6.375667e-01 0.000000e+00 0.000000e+00
1
Step 142000
Ar 6.809008e-01 0.000000e+00 0.000000e+00
1
Step 143000
Ar 6.775990e-01 0.000000e+00 0.000000e+00
1
Step 144000
Ar -8.262538e-01 0.000000e+00 0.000000e+00
1
Step 145000
Ar -9.427270e-01 0.000000e+00 0.000000e+00
1
Step 146000
Ar -9.722107e-01 0.000000e+00 0.000000e+00
1
Step 147000
Ar -9.171231e-01 0.000000e+00 0.000000e+00
1
Step 148000
Ar -8.925622e-01 0.000000e+00 0.000000e+00
1
Step 149000
Ar -6.289560e-01 0.000000e+00 0.000000e+00
1
Step 150000
Ar -4.242582e-01 0.000000e+00 0.000000e+00
1
Step 151000
Ar -5.296933e-01 0.000000e+00 0.000000e+00
1
Step 152000
Ar -5.516570e-01 0.000000e+00 0.000000e+00
1
Step 153000
Ar -5.891390e-01 0.000000e+00 0.000000e+00
1
Step 154000
Ar -5.826009e-01 0.000000e+00 0.000000e+00
1
Step 155000
Ar -5.719690e-01 0.000000e+00 0.000000e+00
1
Step 156000
Ar -5.666562e-01 0.000000e+00 0.000000e+00
1
Step 157000
Ar -6.188283e-01 0.000000e+00 0.000000e+00
1
Step 158000
Ar -3.269653e-01 0.000000e+00 0.000000e+00
1
Step 159000
Ar -4.583352e-01 0.000000e+00 0.000000e+00
1
Step 160000
Ar -2.802289e-01 0.000000e+00 0.000000e+00
1
Step 161000
Ar -2.917462e-01 0.000000e+00 0.000000e+00
1
Step 162000
Ar 5.789322e-01 0.000000e+00 0.000000e+00
1
Step 163000
Ar 6.174028e-01 0.000000e+00 0.000000e+00
1
Step 164000
Ar 5.840518e-01 0.000000e+00 0.000000e+00
1
Step 165000
Ar 6.115373e-01 0.000000e+00 0.000000e+00
1
Step 166000
Ar 6.373516e-01 0.000000e+00 0.000000e+00
1
Step 167000
Ar 5.883960e-01 0.000000e+00 0.000000e+00
1
Step 168000
Ar 3.735561e-01 0.000000e+00 0.000000e+00
1
Step 169000
Ar 4.288351e-01 0.000000e+00 0.000000e+00
1
Step 170000
Ar 5.742438e-01 0.000000e+00 0.000000e+00
1
Step 171000
Ar 6.054318e-01 0.000000e+00 0.000000e+00
1
Step 172000
Ar 5.970977e-01 0.000000e+00 0.000000e+00
1
Step 173000
Ar 5.997133e-01 0.000000e+00 0.000000e+00
1
Step 174000
Ar 6.220961e-01 0.000000e+00 0.000000e+00
1
Step 175000
Ar 6.284678e-01 0.000000e+00 0.000000e+00
1
Step 176000
Ar 6.126849e-01 0.000000e+00 0.000000e+00
1
Step 177000
Ar 7.546186e-01 0.000000e+00 0.000000e+00
1
Step 178000
Ar 7.645590e-01 0.000000e+00 0.000000e+00
1
Step 179000
Ar 8.877263e-01 0.000000e+00 0.000000e+00
1
Step 180000
Ar 8.209157e-01 0.000000e+00 0.000000e+00
1
Step 181000
Ar 8.837374e-01 0.000000e+00 0.000000e+00
1
Step 182000
Ar 8.816860e-01 0.000000e+00 0.000000e+00
1
Step 183000
Ar 8.910482e-01 0.000000e+00 0.000000e+00
1
Step 184000
Ar 8.852720e-01 0.000000e+00 0.000000e+00
1
Step 185000
Ar 9.043577e-01 0.000000e+00 0.000000e+00
1
Step 186000
Ar 8.939739e-01 0.000000e+00 0.000000e+00
1
Step 187000
Ar 9.109418e-01 0.000000e+00 0.000000e+00
1
Step 188000
Ar 8.077114e-01 0.000000e+00 0.000000e+00
1
Step 189000
Ar 8.438889e-01 0.000000e+00 0.000000e+00
1
Step 190000
Ar 9.075686e-01 0.000000e+00 0.000000e+00
1
Step 191000
Ar 8.618348e-01 0.000000e+00 0.000000e+00
1
Step 192000
Ar 8.654146e-01 0.000000e+00 0.000000e+00
1
Step 193000
Ar 8.350407e-01 0.000000e+00 0.000000e+00
1
Step 194000
Ar 8.283794e-01 0.000000e+00 0.000000e+00
1
Step 195000
Ar 8.696929e-01 0.000000e+00 0.000000e+00
1
Step 196000
Ar 8.363559e-01 0.000000e+00 0.000000e+00
1
Step 197000
Ar 8.542909e-01 0.000000e+00 0.000000e+00
1
Step 198000
Ar 8.086132e-01 0.000000e+00 0.000000e+00
1
Step 199000
Ar 8.342692e-01 0.000000e+00 0.000000e+00
1
Step 200000
Ar 8.521297e-01 0.000000e+00 0.000000e+00
1
Step 201000
Ar 8.461542e-01 0.000000e+00 0.000000e+00
1
Step 202000
Ar 8.666457e-01 0.000000e+00 0.000000e+00
1
Step 203000
Ar 8.283675e-01 0.000000e+00 0.000000e+00
1
Step 204000
Ar 8.578658e-01 0.000000e+00 0.000000e+00
1
Step 205000
Ar 8.400616e-01 0.000000e+00 0.000000e+00
1
Step 206000
Ar 8.037905e-01 0.000000e+00 0.000000e+00
1
Step 207000
Ar 8.990535e-01 0.000000e+00 0.000000e+00
1
Step 208000
Ar 8.946113e-01 0.000000e+00 0.000000e+00
1
Step 209000
Ar 8.984402e-01 0.000000e+00 0.000000e+00
1
Step 210000
Ar 9.010728e-01 0.000000e+00 0.000000e+00
1
Step 211000
Ar 1.282628e+00 0.000000e+00 0.000000e+00
1
Step 212000
Ar 1.173929e+00 0.000000e+00 0.000000e+00
1
Step 213000
Ar 1.220436e+00 0.000000e+00 0.000000e+00
1
Step 214000
Ar 1.170228e+00 0.000000e+00 0.000000e+00
1
Step 215000
Ar 1.211062e+00 0.000000e+00 0.000000e+00
1
Step 216000
Ar 1.290586e+00 0.000000e+00 0.000000e+00
1
Step 217000
Ar 1.314611e+00 0.000000e+00 0.000000e+00
1
Step 218000
Ar 9.830651e-01 0.000000e+00 0.000000e+00
1
Step 219000
Ar 9.360990e-01 0.000000e+00 0.000000e+00
1
Step 220000
Ar 9.353425e-01 0.000000e+00 0.000000e+00
1
Step 221000
Ar 9.526867e-01 0.000000e+00 0.000000e+00
1
Step 222000
Ar 9.871395e-01 0.000000e+00 0.000000e+00
1
Step 223000
Ar 9.342192e-01 0.000000e+00 0.000000e+00
1
Step 224000
Ar 9.756493e-01 0.000000e+00 0.000000e+00
1
Step 225000
Ar 9.472448e-01 0.000000e+00 0.000000e+00
1
Step 226000
Ar 9.851005e-01 0.000000e+00 0.000000e+00
1
Step 227000
Ar 9.425063e-01 0.000000e+00 0.000000e+00
1
Step 228000
Ar 9.586855e-01 0.000000e+00 0.000000e+00
1
Step 229000
Ar 9.433011e-01 0.000000e+00 0.000000e+00
1
Step 230000
Ar 9.591944e-01 0.000000e+00 0.000000e+00
1
Step 231000
Ar 9.527003e-01 0.000000e+00 0.000000e+00
1
Step 232000
Ar 1.092401e+00 0.000000e+00 0.000000e+00
1
Step 233000
Ar 1.077780e+00 0.000000e+00 0.000000e+00
1
Step 234000
Ar 1.088633e+00 0.000000e+00 0.000000e+00
1
Step 235000
Ar 1.077364e+00 0.000000e+00 0.000000e+00
1
Step 236000
Ar 1.025595e+00 0.000000e+00 0.000000e+00
1
Step 237000
Ar 1.059488e+00 0.000000e+00 0.000000e+00
1
Step 238000
Ar 1.076361e+00 0.000000e+00 0.000000e+00
1
Step 239000
Ar 1.083861e+00 0.000000e+00 0.000000e+00
1
Step 240000
Ar 1.059757e+00 0.000000e+00 0.000000e+00
1
Step 241000
Ar 1.077531e+00 0.000000e+00 0.000000e+00
1
Step 242000
Ar 1.056518e+00 0.000000e+00 0.000000e+00
1
Step 243000
Ar 1.055575e+00 0.000000e+00 0.000000e+00
1
Step 244000
Ar 1.057478e+00 0.000000e+00 0.000000e+00
1
Step 245000
Ar 1.074760e+00 0.000000e+00 0.000000e+00
1
Step 246000
Ar 8.054342e-01 0.000000e+00 0.000000e+00
1
Step 247000
Ar 8.283599e-01 0.000000e+00 0.000000e+00
1
Step 248000
Ar 8.294358e-01 0.000000e+00 0.000000e+00
1
Step 249000
Ar 8.372245e-01 0.000000e+00 0.000000e+00
1
Step 250000
Ar 8.251208e-01 0.000000e+00 0.000000e+00
1
Step 251000
Ar 8.303253e-01 0.000000e+00 0.000000e+00
1
Step 252000
Ar 8.307535e-01 0.000000e+00 0.000000e+00
1
Step 253000
Ar 8.262272e-01 0.000000e+00 0.000000e+00
1
Step 254000
Ar 8.250587e-01 0.000000e+00 0.000000e+00
1
Step 255000
Ar 8.283930e-01 0.000000e+00 0.000000e+00
1
Step 256000
Ar 8.276475e-01 0.000000e+00 0.000000e+00
1
Step 257000
Ar 8.321216e-01 0.000000e+00 0.000000e+00
1
Step 258000
Ar 8.301466e-01 0.000000e+00 0.000000e+00
1
Step 259000
Ar 8.358094e-01 0.000000e+00 0.000000e+00
1
Step 260000
Ar 8.269657e-01 0.000000e+00 0.000000e+00
1
Step 261000
Ar 8.207805e-01 0.000000e+00 0.000000e+00
1
Step 262000
Ar 8.237541e-01 0.000000e+00 0.000000e+00
1
Step 263000
Ar 7.190422e-01 0.000000e+00 0.000000e+00
1
Step 264000
Ar 7.163993e-01 0.000000e+00 0.000000e+00
1
Step 265000
Ar 7.171506e-01 0.000000e+00 0.000000e+00
1
Step 266000
Ar 7.103446e-01 0.000000e+00 0.000000e+00
1
Step 267000
Ar 7.144094e-01 0.000000e+00 0.000000e+00
1
Step 268000
Ar 7.109946e-01 0.000000e+00 0.000000e+00
1
Step 269000
Ar 7.158153e-01 0.000000e+00 0.000000e+00
1
Step 270000
Ar 7.107645e-01 0.000000e+00 0.000000e+00
1
Step 271000
Ar -5.659136e-02 0.000000e+00 0.000000e+00
1
Step 272000
Ar 5.330214e-01 0.000000e+00 0.000000e+00
1
Step 273000
Ar 4.738428e-01 0.000000e+00 0.000000e+00
1
Step 274000
Ar 5.568779e-01 0.000000e+00 0.000000e+00
1
Step 275000
Ar 5.131647e-01 0.000000e+00 0.000000e+00
1
Step 276000
Ar 8.364252e-02 0.000000e+00 0.000000e+00
1
Step 277000
Ar 3.637393e-01 0.000000e+00 0.000000e+00
1
Step 278000
Ar 2.588381e-01 0.000000e+00 0.000000e+00
1
Step 279000
Ar 3.566750e-01 0.000000e+00 0.000000e+00
1
Step 280000
Ar 4.758319e-01 0.000000e+00 0.000000e+00
1
Step 281000
Ar -1.198763e-01 0.000000e+00 0.000000e+00
1
Step 282000
Ar 3.682434e-02 0.000000e+00 0.000000e+00
1
Step 283000
Ar 3.404663e-01 0.000000e+00 0.000000e+00
1
Step 284000
Ar 3.437053e-01 0.000000e+00 0.000000e+00
1
Step 285000
Ar 2.108489e-01 0.000000e+00 0.000000e+00
1
Step 286000
Ar 3.568245e-01 0.000000e+00 0.000000e+00
1
Step 287000
Ar 2.623462e-01 0.000000e+00 0.000000e+00
1
Step 288000
Ar 3.736203e-01 0.000000e+00 0.000000e+00
1
Step 289000
Ar 2.975049e-01 0.000000e+00 0.000000e+00
1
Step 290000
Ar 3.254821e-01 0.000000e+00 0.000000e+00
1
Step 291000
Ar 2.644188e-01 0.000000e+00 0.000000e+00
1
Step 292000
Ar 2.443004e-01 0.000000e+00 0.000000e+00
1
Step 293000
Ar 2.471031e-01 0.000000e+00 0.000000e+00
1
Step 294000
Ar 2.465229e-01 0.000000e+00 0.000000e+00
1
Step 295000
Ar 4.471437e-01 0.000000e+00 0.000000e+00
1
Step 296000
Ar 4.829064e-01 0.000000e+00 0.000000e+00
1
Step 297000
Ar 3.630261e-01 0.000000e+00 0.000000e+00
1
Step 298000
Ar 2.869435e-01 0.000000e+00 0.000000e+00
1
Step 299000
Ar 3.528597e-01 0.000000e+00 0.000000e+00
1
Step 300000
Ar 5.417150e-01 0.000000e+00 0.000000e+00
1
Step 301000
Ar 5.305136e-01 0.000000e+00 0.000000e+00
1
Step 302000
Ar 5.359644e-01 0.000000e+00 0.000000e+00
1
Step 303000
Ar 5.186513e-01 0.000000e+00 0.000000e+00
1
Step 304000
Ar 5.203283e-01 0.000000e+00 0.000000e+00
1
Step 305000
Ar 5.227598e-01 0.000000e+00 0.000000e+00
1
Step 306000
Ar 5.255696e-01 0.000000e+00 0.000000e+00
1
Step 307000
Ar 5.109501e-01 0.000000e+00 0.000000e+00
1
Step 308000
Ar 5.259407e-01 0.000000e+00 0.000000e+00
1
Step 309000
Ar 5.263348e-01 0.000000e+00 0.000000e+00
1
Step 310000
Ar 7.603165e-01 0.000000e+00 0.000000e+00
1
Step 311000
Ar 7.607968e-01 0.000000e+00 0.000000e+00
1
Step 312000
Ar 7.580700e-01 0.000000e+00 0.000000e+00
1
Step 313000
Ar 7.586870e-01 0.000000e+00 0.000000e+00
1
Step 314000
Ar 7.551358e-01 0.000000e+00 0.000000e+00
1
Step 315000
Ar 7.555671e-01 0.000000e+00 0.000000e+00
1
Step 316000
Ar 7.608711e-01 0.000000e+00 0.000000e+00
1
Step 317000
Ar 7.529517e-01 0.000000e+00 0.000000e+00
1
Step 318000
Ar 7.599263e-01 0.000000e+00 0.000000e+00
1
Step 319000
Ar 7.601158e-01 0.000000e+00 0.000000e+00
1
Step 320000
Ar 7.544841e-01 0.000000e+00 0.000000e+00
1
Step 321000
Ar 7.541214e-01 0.000000e+00 0.000000e+00
1
Step 322000
Ar 7.578102e-01 0.000000e+00 0.000000e+00
1
Step 323000
Ar 7.588221e-01 0.000000e+00 0.000000e+00
1
Step 324000
Ar 1.364438e+00 0.000000e+00 0.000000e+00
1
Step 325000
Ar 8.011120e-01 0.000000e+00 0.000000e+00
1
Step 326000
Ar 8.035333e-01 0.000000e+00 0.000000e+00
1
Step 327000
Ar 8.032348e-01 0.000000e+00 0.000000e+00
1
Step 328000
Ar 8.038541e-01 0.000000e+00 0.000000e+00
1
Step 329000
Ar 7.977587e-01 0.000000e+00 0.000000e+00
1
Step 330000
Ar 8.064828e-01 0.000000e+00 0.000000e+00
1
Step 331000
Ar 7.952917e-01 0.000000e+00 0.000000e+00
1
Step 332000
Ar 1.239223e+00 0.000000e+00 0.000000e+00
1
Step 333000
Ar 1.253506e+00 0.000000e+00 0.000000e+00
1
Step 334000
Ar 1.238822e+00 0.000000e+00 0.000000e+00
1
Step 335000
Ar 1.235562e+00 0.000000e+00 0.000000e+00
1
Step 336000
Ar 1.246372e+00 0.000000e+00 0.000000e+00
1
Step 337000
Ar 1.255813e+00 0.000000e+00 0.000000e+00
1
Step 338000
Ar 1.269460e+00 0.000000e+00 0.000000e+00
1
Step 339000
Ar 1.204809e+00 0.000000e+00 0.000000e+00
1
Step 340000
Ar 1.199939e+00 0.000000e+00 0.000000e+00
1
Step 341000
Ar 1.251710e+00 0.000000e+00 0.000000e+00
1
Step 342000
Ar 1.254141e+00 0.000000e+00 0.000000e+00
1
Step 343000
Ar 1.252026e+00 0.000000e+00 0.000000e+00
1
Step 344000
Ar 1.250178e+00 0.000000e+00 0.000000e+00
1
Step 345000
Ar 9.155869e-01 0.000000e+00 0.000000e+00
1
Step 346000
Ar 1.226360e+00 0.000000e+00 0.000000e+00
1
Step 347000
Ar 1.084909e+00 0.000000e+00 0.000000e+00
1
Step 348000
Ar 1.076914e+00 0.000000e+00 0.000000e+00
1
Step 349000
Ar 1.080768e+00 0.000000e+00 0.000000e+00
1
Step 350000
Ar 1.089873e+00 0.000000e+00 0.000000e+00
1
Step 351000
Ar 1.093561e+00 0.000000e+00 0.000000e+00
1
Step 352000
Ar 1.082066e+00 0.000000e+00 0.000000e+00
1
Step 353000
Ar 9.435920e-01 0.000000e+00 0.000000e+00
1
Step 354000
Ar 9.325666e-01 0.000000e+00 0.000000e+00
1
Step 355000
Ar 9.453033e-01 0.000000e+00 0.000000e+00
1
Step 356000
Ar 9.402698e-01 0.000000e+00 0.000000e+00
1
Step 357000
Ar 9.396006e-01 0.000000e+00 0.000000e+00
1
Step 358000
Ar 9.425943e-01 0.000000e+00 0.000000e+00
1
Step 359000
Ar 9.385806e-01 0.000000e+00 0.000000e+00
1
Step 360000
Ar 1.315520e+00 0.000000e+00 0.000000e+00
1
Step 361000
Ar 1.283771e+00 0.000000e+00 0.000000e+00
1
Step 362000
Ar 1.319008e+00 0.000000e+00 0.000000e+00
1
Step 363000
Ar 1.281551e+00 0.000000e+00 0.000000e+00
1
Step 364000
Ar 9.840279e-01 0.000000e+00 0.000000e+00
1
Step 365000
Ar 1.044599e+00 0.000000e+00 0.000000e+00
1
Step 366000
Ar 7.152407e-01 0.000000e+00 0.000000e+00
1
Step 367000
Ar 7.173242e-01 0.000000e+00 0.000000e+00
1
Step 368000
Ar 6.403919e-01 0.000000e+00 0.000000e+00
1
Step 369000
Ar 6.373618e-01 0.000000e+00 0.000000e+00
1
Step 370000
Ar 6.367636e-01 0.000000e+00 0.000000e+00
1
Step 371000
Ar 6.314738e-01 0.000000e+00 0.000000e+00
1
Step 372000
Ar 4.323733e-01 0.000000e+00 0.000000e+00
1
Step 373000
Ar 4.387010e-01 0.000000e+00 0.000000e+00
1
Step 374000
Ar 4.355745e-01 0.000000e+00 0.000000e+00
1
Step 375000
Ar 4.417629e-01 0.000000e+00 0.000000e+00
1
Step 376000
Ar 4.395201e-01 0.000000e+00 0.000000e+00
1
Step 377000
Ar 4.495535e-01 0.000000e+00 0.000000e+00
1
Step 378000
Ar 4.447871e-01 0.000000e+00 0.000000e+00
1
Step 379000
Ar 4.478222e-01 0.000000e+00 0.000000e+00
1
Step 380000
Ar 4.363556e-01 0.000000e+00 0.000000e+00
1
Step 381000
Ar 4.449907e-01 0.000000e+00 0.000000e+00
1
Step 382000
Ar 4.426077e-01 0.000000e+00 0.000000e+00
1
Step 383000
Ar 4.421468e-01 0.000000e+00 0.000000e+00
1
Step 384000
Ar 4.333232e-01 0.000000e+00 0.000000e+00
1
Step 385000
Ar 4.508587e-01 0.000000e+00 0.000000e+00
1
Step 386000
Ar 4.469890e-01 0.000000e+00 0.000000e+00
1
Step 387000
Ar 4.342013e-01 0.000000e+00 0.000000e+00
1
Step 388000
Ar 4.327287e-01 0.000000e+00 0.000000e+00
1
Step 389000
Ar 3.295673e-01 0.000000e+00 0.000000e+00
1
Step 390000
Ar 3.383392e-01 0.000000e+00 0.000000e+00
1
Step 391000
Ar 3.684429e-01 0.000000e+00 0.000000e+00
1
Step 392000
Ar 3.670629e-01 0.000000e+00 0.000000e+00
1
Step 393000
Ar 3.070818e-01 0.000000e+00 0.000000e+00
1
Step 394000
Ar 2.793161e-01 0.000000e+00 0.000000e+00
1
Step 395000
Ar 3.052092e-01 0.000000e+00 0.000000e+00
1
Step 396000
Ar 3.226813e-01 0.000000e+00 0.000000e+00
1
Step 397000
Ar 3.998553e-01 0.000000e+00 0.000000e+00
1
Step 398000
Ar 4.042453e-01 0.000000e+00 0.000000e+00
1
Step 399000
Ar 4.011172e-01 0.000000e+00 0.000000e+00
1
Step 400000
Ar 4.014191e-01 0.000000e+00 0.000000e+00
1
Step 401000
Ar 3.993769e-01 0.000000e+00 0.000000e+00
1
Step 402000
Ar 4.055218e-01 0.000000e+00 0.000000e+00
1
Step 403000
Ar 4.043706e-01 0.000000e+00 0.000000e+00
1
Step 404000
Ar 4.077297e-01 0.000000e+00 0.000000e+00
1
Step 405000
Ar 4.048850e-01 0.000000e+00 0.000000e+00
1
Step 406000
Ar 4.035014e-01 0.000000e+00 0.000000e+00
1
Step 407000
Ar 4.027967e-01 0.000000e+00 0.000000e+00
1
Step 408000
Ar 4.099024e-01 0.000000e+00 0.000000e+00
1
Step 409000
Ar 3.980198e-01 0.000000e+00 0.000000e+00
1
Step 410000
Ar 3.997462e-01 0.000000e+00 0.000000e+00
1
Step 411000
Ar 4.043247e-01 0.000000e+00 0.000000e+00
1
Step 412000
Ar 3.530238e-01 0.000000e+00 0.000000e+00
1
Step 413000
Ar 1.348130e+00 0.000000e+00 0.000000e+00
1
Step 414000
Ar 1.345026e+00 0.000000e+00 0.000000e+00
1
Step 415000
Ar 1.343365e+00 0.000000e+00 0.000000e+00
1
Step 416000
Ar 1.348979e+00 0.000000e+00 0.000000e+00
1
Step 417000
Ar 1.437598e+00 0.000000e+00 0.000000e+00
1
Step 418000
Ar 1.392135e+00 0.000000e+00 0.000000e+00
1
Step 419000
Ar 1.388499e+00 0.000000e+00 0.000000e+00
1
Step 420000
Ar 1.387530e+00 0.000000e+00 0.000000e+00
1
Step 421000
Ar 1.382996e+00 0.000000e+00 0.000000e+00
1
Step 422000
Ar 1.374178e+00 0.000000e+00 0.000000e+00
1
Step 423000
Ar 1.387546e+00 0.000000e+00 0.000000e+00
1
Step 424000
Ar 1.427085e+00 0.000000e+00 0.000000e+00
1
Step 425000
Ar 1.401916e+00 0.000000e+00 0.000000e+00
1
Step 426000
Ar 1.502283e+00 0.000000e+00 0.000000e+00
1
Step 427000
Ar 1.426616e+00 0.000000e+00 0.000000e+00
1
Step 428000
Ar 1.416514e+00 0.000000e+00 0.000000e+00
1
Step 429000
Ar 9.554533e-01 0.000000e+00 0.000000e+00
1
Step 430000
Ar 1.429753e+00 0.000000e+00 0.000000e+00
1
Step 431000
Ar 1.062947e+00 0.000000e+00 0.000000e+00
1
Step 432000
Ar 1.097367e+00 0.000000e+00 0.000000e+00
1
Step 433000
Ar 1.101878e+00 0.000000e+00 0.000000e+00
1
Step 434000
Ar 1.094100e+00 0.000000e+00 0.000000e+00
1
Step 435000
Ar 1.102944e+00 0.000000e+00 0.000000e+00
1
Step 436000
Ar 1.101874e+00 0.000000e+00 0.000000e+00
1
Step 437000
Ar 1.095787e+00 0.000000e+00 0.000000e+00
1
Step 438000
Ar 1.171460e+00 0.000000e+00 0.000000e+00
1
Step 439000
Ar 1.175787e+00 0.000000e+00 0.000000e+00
1
Step 440000
Ar 1.167381e+00 0.000000e+00 0.000000e+00
1
Step 441000
Ar 1.170703e+00 0.000000e+00 0.000000e+00
1
Step 442000
Ar 1.280362e+00 0.000000e+00 0.000000e+00
1
Step 443000
Ar 1.295268e+00 0.000000e+00 0.000000e+00
1
Step 444000
Ar 1.072495e+00 0.000000e+00 0.000000e+00
1
Step 445000
Ar 1.065674e+00 0.000000e+00 0.000000e+00
1
Step 446000
Ar 1.419094e+00 0.000000e+00 0.000000e+00
1
Step 447000
Ar 1.428196e+00 0.000000e+00 0.000000e+00
1
Step 448000
Ar 1.427421e+00 0.000000e+00 0.000000e+00
1
Step 449000
Ar 1.421924e+00 0.000000e+00 0.000000e+00
1
Step 450000
Ar 1.423842e+00 0.000000e+00 0.000000e+00
1
Step 451000
Ar -1.104334e-01 0.000000e+00 0.000000e+00
1
Step 452000
Ar -4.376221e-02 0.000000e+00 0.000000e+00
1
Step 453000
Ar 1.201702e-01 0.000000e+00 0.000000e+00
1
Step 454000
Ar 1.870371e-01 0.000000e+00 0.000000e+00
1
Step 455000
Ar 2.001080e-01 0.000000e+00 0.000000e+00
1
Step 456000
Ar 1.203682e-01 0.000000e+00 0.000000e+00
1
Step 457000
Ar 1.625655e-01 0.000000e+00 0.000000e+00
1
Step 458000
Ar 7.984689e-02 0.000000e+00 0.000000e+00
1
Step 459000
Ar 1.674513e-01 0.000000e+00 0.000000e+00
1
Step 460000
Ar 1.490527e-01 0.000000e+00 0.000000e+00
1
Step 461000
Ar 1.879275e-01 0.000000e+00 0.000000e+00
1
Step 462000
Ar 1.618029e-01 0.000000e+00 0.000000e+00
1
Step 463000
Ar 1.948573e-01 0.000000e+00 0.000000e+00
1
Step 464000
Ar 1.154902e-01 0.000000e+00 0.000000e+00
1
Step 465000
Ar 1.379156e-01 0.000000e+00 0.000000e+00
1
Step 466000
Ar 1.375486e-01 0.000000e+00 0.000000e+00
1
Step 467000
Ar 1.840870e-01 0.000000e+00 0.000000e+00
1
Step 468000
Ar 2.069045e-01 0.000000e+00 0.000000e+00
1
Step 469000
Ar 1.776689e-01 0.000000e+00 0.000000e+00
1
Step 470000
Ar 2.084032e-01 0.000000e+00 0.000000e+00
1
Step 471000
Ar 1.755642e-01 0.000000e+00 0.000000e+00
1
Step 472000
Ar 1.745583e-01 0.000000e+00 0.000000e+00
1
Step 473000
Ar 2.014398e-01 0.000000e+00 0.000000e+00
1
Step 474000
Ar 2.004396e-01 0.000000e+00 0.000000e+00
1
Step 475000
Ar 1.308700e-01 0.000000e+00 0.000000e+00
1
Step 476000
Ar 1.097014e-01 0.000000e+00 0.000000e+00
1
Step 477000
Ar 1.224995e-01 0.000000e+00 0.000000e+00
1
Step 478000
Ar 6.961897e-02 0.000000e+00 0.000000e+00
1
Step 479000
Ar 5.891637e-02 0.000000e+00 0.000000e+00
1
Step 480000
Ar 6.286733e-02 0.000000e+00 0.000000e+00
1
Step 481000
Ar 8.450858e-02 0.000000e+00 0.000000e+00
1
Step 482000
Ar 8.220915e-02 0.000000e+00 0.000000e+00
1
Step 483000
Ar 9.220504e-02 0.000000e+00 0.000000e+00
1
Step 484000
Ar 9.941076e-02 0.000000e+00 0.000000e+00
1
Step 485000
Ar 9.992416e-02 0.000000e+00 0.000000e+00
1
Step 486000
Ar 5.510565e-02 0.000000e+00 0.000000e+00
1
Step 487000
Ar 9.778728e-02 0.000000e+00 0.000000e+00
1
Step 488000
Ar 9.134911e-02 0.000000e+00 0.000000e+00
1
Step 489000
Ar 9.054038e-02 0.000000e+00 0.000000e+00
1
Step 490000
Ar 9.480825e-02 0.000000e+00 0.000000e+00
1
Step 491000
Ar 8.323565e-02 0.000000e+00 0.000000e+00
1
Step 492000
Ar 8.357459e-02 0.000000e+00 0.000000e+00
1
Step 493000
Ar 8.003886e-02 0.000000e+00 0.000000e+00
1
Step 494000
Ar 9.565971e-02 0.000000e+00 0.000000e+00
1
Step 495000
Ar 8.613925e-02 0.000000e+00 0.000000e+00
1
Step 496000
Ar 1.601444e-01 0.000000e+00 0.000000e+00
1
Step 497000
Ar 1.023391e-01 0.000000e+00 0.000000e+00
1
Step 498000
Ar 9.495253e-02 0.000000e+00 0.000000e+00
1
Step 499000
Ar 9.668021e-02 0.000000e+00 0.000000e+00
1
Step 500000
Ar 9.497500e-02 0.000000e+00 0.000000e+00
1
Step 501000
Ar 9.819027e-02 0.000000e+00 0.000000e+00
1
Step 502000
Ar 9.618941e-02 0.000000e+00 0.000000e+00
1
Step 503000
Ar 9.881586e-02 0.000000e+00 0.000000e+00
1
Step 504000
Ar 9.815074e-02 0.000000e+00 0.000000e+00
1
Step 505000
Ar 9.411529e-02 0.000000e+00 0.000000e+00
1
Step 506000
Ar 8.855410e-02 0.000000e+00 0.000000e+00
1
Step 507000
Ar 6.353773e-02 0.000000e+00 0.000000e+00
1
Step 508000
Ar 6.490659e-02 0.000000e+00 0.000000e+00
1
Step 509000
Ar 6.910096e-02 0.000000e+00 0.000000e+00
1
Step 510000
Ar 6.154478e-02 0.000000e+00 0.000000e+00
1
Step 511000
Ar 6.283831e-02 0.000000e+00 0.000000e+00
1
Step 512000
Ar 6.428027e-02 0.000000e+00 0.000000e+00
1
Step 513000
Ar 5.804363e-02 0.000000e+00 0.000000e+00
1
Step 514000
Ar 6.318133e-02 0.000000e+00 0.000000e+00
1
Step 515000
Ar 5.874794e-02 0.000000e+00 0.000000e+00
1
Step 516000
Ar 6.135476e-02 0.000000e+00 0.000000e+00
1
Step 517000
Ar -6.249864e-02 0.000000e+00 0.000000e+00
1
Step 518000
Ar -1.193960e-01 0.000000e+00 0.000000e+00
1
Step 519000
Ar -8.024276e-02 0.000000e+00 0.000000e+00
1
Step 520000
Ar -6.026031e-02 0.000000e+00 0.000000e+00
1
Step 521000
Ar -5.372595e-02 0.000000e+00 0.000000e+00
1
Step 522000
Ar 1.461040e+00 0.000000e+00 0.000000e+00
1
Step 523000
Ar 1.453319e+00 0.000000e+00 0.000000e+00
1
Step 524000
Ar 1.476603e+00 0.000000e+00 0.000000e+00
1
Step 525000
Ar 1.463643e+00 0.000000e+00 0.000000e+00
1
Step 526000
Ar 1.463788e+00 0.000000e+00 0.000000e+00
1
Step 527000
Ar 1.477635e+00 0.000000e+00 0.000000e+00
1
Step 528000
Ar 1.453525e+00 0.000000e+00 0.000000e+00
1
Step 529000
Ar 1.493584e+00 0.000000e+00 0.000000e+00
1
Step 530000
Ar 1.458342e+00 0.000000e+00 0.000000e+00
1
Step 531000
Ar 1.464554e+00 0.000000e+00 0.000000e+00
1
Step 532000
Ar 1.459396e+00 0.000000e+00 0.000000e+00
1
Step 533000
Ar 1.454339e+00 0.000000e+00 0.000000e+00
1
Step 534000
Ar 1.468118e+00 0.000000e+00 0.000000e+00
1
Step 535000
Ar 1.457376e+00 0.000000e+00 0.000000e+00
1
Step 536000
Ar 1.460064e+00 0.000000e+00 0.000000e+00
1
Step 537000
Ar 1.465638e+00 0.000000e+00 0.000000e+00
1
Step 538000
Ar 1.505927e+00 0.000000e+00 0.000000e+00
1
Step 539000
Ar 1.504887e+00 0.000000e+00 0.000000e+00
1
Step 540000
Ar 1.494728e+00 0.000000e+00 0.000000e+00
1
Step 541000
Ar 1.508871e+00 0.000000e+00 0.000000e+00
1
Step 542000
Ar 1.496328e+00 0.000000e+00 0.000000e+00
1
Step 543000
Ar 1.522187e+00 0.000000e+00 0.000000e+00
1
Step 544000
Ar 1.497239e+00 0.000000e+00 0.000000e+00
1
Step 545000
Ar 1.506819e+00 0.000000e+00 0.000000e+00
1
Step 546000
Ar 1.495167e+00 0.000000e+00 0.000000e+00
1
Step 547000
Ar 1.094122e+00 0.000000e+00 0.000000e+00
1
Step 548000
Ar 1.094191e+00 0.000000e+00 0.000000e+00
1
Step 549000
Ar 1.093177e+00 0.000000e+00 0.000000e+00
1
Step 550000
Ar -1.087075e+00 0.000000e+00 0.000000e+00
1
Step 551000
Ar -1.055701e+00 0.000000e+00 0.000000e+00
1
Step 552000
Ar -1.030293e+00 0.000000e+00 0.000000e+00
1
Step 553000
Ar -1.054512e+00 0.000000e+00 0.000000e+00
1
Step 554000
Ar -1.074906e+00 0.000000e+00 0.000000e+00
1
Step 555000
Ar -1.060182e+00 0.000000e+00 0.000000e+00
1
Step 556000
Ar -1.048439e+00 0.000000e+00 0.000000e+00
1
Step 557000
Ar -1.164645e+00 0.000000e+00 0.000000e+00
1
Step 558000
Ar -1.121504e+00 0.000000e+00 0.000000e+00
1
Step 559000
Ar -1.039885e+00 0.000000e+00 0.000000e+00
1
Step 560000
Ar -1.056532e+00 0.000000e+00 0.000000e+00
1
Step 561000
Ar -1.034562e+00 0.000000e+00 0.000000e+00
1
Step 562000
Ar -1.142099e+00 0.000000e+00 0.000000e+00
1
Step 563000
Ar -1.105283e+00 0.000000e+00 0.000000e+00
1
Step 564000
Ar -1.055533e+00 0.000000e+00 0.000000e+00
1
Step 565000
Ar -1.150700e+00 0.000000e+00 0.000000e+00
1
Step 566000
Ar -9.879145e-01 0.000000e+00 0.000000e+00
1
Step 567000
Ar -9.692592e-01 0.000000e+00 0.000000e+00
1
Step 568000
Ar -9.827884e-01 0.000000e+00 0.000000e+00
1
Step 569000
Ar -9.757977e-01 0.000000e+00 0.000000e+00
1
Step 570000
Ar -9.777663e-01 0.000000e+00 0.000000e+00
1
Step 571000
Ar -9.335099e-01 0.000000e+00 0.000000e+00
1
Step 572000
Ar -8.883854e-01 0.000000e+00 0.000000e+00
1
Step 573000
Ar -8.925371e-01 0.000000e+00 0.000000e+00
1
Step 574000
Ar -7.741884e-01 0.000000e+00 0.000000e+00
1
Step 575000
Ar -8.039767e-01 0.000000e+00 0.000000e+00
1
Step 576000
Ar -9.382503e-01 0.000000e+00 0.000000e+00
1
Step 577000
Ar -6.157485e-01 0.000000e+00 0.000000e+00
1
Step 578000
Ar -6.098228e-01 0.000000e+00 0.000000e+00
1
Step 579000
Ar -6.163170e-01 0.000000e+00 0.000000e+00
1
Step 580000
Ar -9.347351e-01 0.000000e+00 0.000000e+00
1
Step 581000
Ar -9.225481e-01 0.000000e+00 0.000000e+00
1
Step 582000
Ar -9.359234e-01 0.000000e+00 0.000000e+00
1
Step 583000
Ar -9.092466e-01 0.000000e+00 0.000000e+00
1
Step 584000
Ar -8.703010e-01 0.000000e+00 0.000000e+00
1
Step 585000
Ar -9.184102e-01 0.000000e+00 0.000000e+00
1
Step 586000
Ar -9.025545e-01 0.000000e+00 0.000000e+00
1
Step 587000
Ar -8.763537e-01 0.000000e+00 0.000000e+00
1
Step 588000
Ar -8.976771e-01 0.000000e+00 0.000000e+00
1
Step 589000
Ar -8.841478e-01 0.000000e+00 0.000000e+00
1
Step 590000
Ar -8.730960e-01 0.000000e+00 0.000000e+00
1
Step 591000
Ar -8.673151e-01 0.000000e+00 0.000000e+00
1
Step 592000
Ar -8.897559e-01 0.000000e+00 0.000000e+00
1
Step 593000
Ar -8.771011e-01 0.000000e+00 0.000000e+00
1
Step 594000
Ar -8.806244e-01 0.000000e+00 0.000000e+00
1
Step 595000
Ar -8.671559e-01 0.000000e+00 0.000000e+00
1
Step 596000
Ar -8.516247e-01 0.000000e+00 0.000000e+00
1
Step 597000
Ar -8.808674e-01 0.000000e+00 0.000000e+00
1
Step 598000
Ar -8.959362e-01 0.000000e+00 0.000000e+00
1
Step 599000
Ar -8.494288e-01 0.000000e+00 0.000000e+00
1
Step 600000
Ar -8.783382e-01 0.000000e+00 0.000000e+00
1
Step 601000
Ar -8.573773e-01 0.000000e+00 0.000000e+00
1
Step 602000
Ar -8.972763e-01 0.000000e+00 0.000000e+00
1
Step 603000
Ar -8.820918e-01 0.000000e+00 0.000000e+00
1
Step 604000
Ar -8.799070e-01 0.000000e+00 0.000000e+00
1
Step 605000
Ar -8.696450e-01 0.000000e+00 0.000000e+00
1
Step 606000
Ar -8.713496e-01 0.000000e+00 0.000000e+00
1
Step 607000
Ar -8.912450e-01 0.000000e+00 0.000000e+00
1
Step 608000
Ar -8.898739e-01 0.000000e+00 0.000000e+00
1
Step 609000
Ar -8.950069e-01 0.000000e+00 0.000000e+00
1
Step 610000
Ar -8.601317e-01 0.000000e+00 0.000000e+00
1
Step 611000
Ar -8.639474e-01 0.000000e+00 0.000000e+00
1
Step 612000
Ar -8.038403e-01 0.000000e+00 0.000000e+00
1
Step 613000
Ar -7.529341e-01 0.000000e+00 0.000000e+00
1
Step 614000
Ar -7.943038e-01 0.000000e+00 0.000000e+00
1
Step 615000
Ar -8.209191e-01 0.000000e+00 0.000000e+00
1
Step 616000
Ar -7.499965e-01 0.000000e+00 0.000000e+00
1
Step 617000
Ar -7.869350e-01 0.000000e+00 0.000000e+00
1
Step 618000
Ar -7.067984e-01 0.000000e+00 0.000000e+00
1
Step 619000
Ar -7.330122e-01 0.000000e+00 0.000000e+00
1
Step 620000
Ar -7.645702e-01 0.000000e+00 0.000000e+00
1
Step 621000
Ar -7.583074e-01 0.000000e+00 0.000000e+00
1
Step 622000
Ar -7.873480e-01 0.000000e+00 0.000000e+00
1
Step 623000
Ar -7.945828e-01 0.000000e+00 0.000000e+00
1
Step 624000
Ar -7.010278e-01 0.000000e+00 0.000000e+00
1
Step 625000
Ar -7.338189e-01 0.000000e+00 0.000000e+00
1
Step 626000
Ar -7.706174e-01 0.000000e+00 0.000000e+00
1
Step 627000
Ar -7.727834e-01 0.000000e+00 0.000000e+00
1
Step 628000
Ar -7.077879e-01 0.000000e+00 0.000000e+00
1
Step 629000
Ar -7.747537e-01 0.000000e+00 0.000000e+00
1
Step 630000
Ar -7.805963e-01 0.000000e+00 0.000000e+00
1
Step 631000
Ar -7.174685e-01 0.000000e+00 0.000000e+00
1
Step 632000
Ar -6.032552e-01 0.000000e+00 0.000000e+00
1
Step 633000
Ar -6.119340e-01 0.000000e+00 0.000000e+00
1
Step 634000
Ar -6.151617e-01 0.000000e+00 0.000000e+00
1
Step 635000
Ar -6.121703e-01 0.000000e+00 0.000000e+00
1
Step 636000
Ar -6.129226e-01 0.000000e+00 0.000000e+00
1
Step 637000
Ar -6.187298e-01 0.000000e+00 0.000000e+00
1
Step 638000
Ar -6.130480e-01 0.000000e+00 0.000000e+00
1
Step 639000
Ar -5.867558e-01 0.000000e+00 0.000000e+00
1
Step 640000
Ar -5.821983e-01 0.000000e+00 0.000000e+00
1
Step 641000
Ar -5.875421e-01 0.000000e+00 0.000000e+00
1
Step 642000
Ar -5.785843e-01 0.000000e+00 0.000000e+00
1
Step 643000
Ar -5.915816e-01 0.000000e+00 0.000000e+00
1
Step 644000
Ar -5.832510e-01 0.000000e+00 0.000000e+00
1
Step 645000
Ar -5.896824e-01 0.000000e+00 0.000000e+00
1
Step 646000
Ar -5.829336e-01 0.000000e+00 0.000000e+00
1
Step 647000
Ar -5.879279e-01 0.000000e+00 0.000000e+00
1
Step 648000
Ar -2.985880e-01 0.000000e+00 0.000000e+00
1
Step 649000
Ar -3.941930e-01 0.000000e+00 0.000000e+00
1
Step 650000
Ar -3.930715e-01 0.000000e+00 0.000000e+00
1
Step 651000
Ar -5.156934e-01 0.000000e+00 0.000000e+00
1
Step 652000
Ar -5.409409e-01 0.000000e+00 0.000000e+00
1
Step 653000