1
Step 120000
Ar 9.767715e-01 0.000000e+00 0.000000e+00
1
Step 121000
Ar 9.890823e-01 0.000000e+00 0.000000e+00
1
Step 122000
Ar 9.823247e-01 0.000000e+00 0.000000e+00
1
Step 123000
Ar 1.006789e+00 0.000000e+00 0.000000e+00
1
Step 124000
Ar 1.011077e+00 0.000000e+00 0.000000e+00
1
Step 125000
Ar 1.018049e+00 0.000000e+00 0.000000e+00
1
Step 126000
Ar 9.665636e-01 0.000000e+00 0.000000e+00
1
Step 127000
Ar 9.672060e-01 0.000000e+00 0.000000e+00
1
Step 128000
Ar 9.692428e-01 0.000000e+00 0.000000e+00
1
Step 129000
Ar 1.050706e+00 0.000000e+00 0.000000e+00
1
Step 130000
Ar 1.034076e+00 0.000000e+00 0.000000e+00
1
Step 131000
Ar 1.029441e+00 0.000000e+00 0.000000e+00
1
Step 132000
Ar 1.029000e+00 0.000000e+00 0.000000e+00
1
Step 133000
Ar 1.032544e+00 0.000000e+00 0.000000e+00
1
Step 134000
Ar 1.032378e+00 0.000000e+00 0.000000e+00
1
Step 135000
Ar 1.033260e+00 0.000000e+00 0.000000e+00
1
Step 136000
Ar 1.031139e+00 0.000000e+00 0.000000e+00
1
Step 137000
Ar 1.091322e+00 0.000000e+00 0.000000e+00
1
Step 138000
Ar 9.926907e-01 0.000000e+00 0.000000e+00
1
Step 139000
Ar 1.001244e+00 0.000000e+00 0.000000e+00
1
Step 140000
Ar 9.988121e-01 0.000000e+00 0.000000e+00
1
Step 141000
Ar 1.005015e+00 0.000000e+00 0.000000e+00
1
Step 142000
Ar 9.915224e-01 0.000000e+00 0.000000e+00
1
Step 143000
Ar 9.716556e-01 0.000000e+00 0.000000e+00
1
Step 144000
Ar 9.927449e-01 0.000000e+00 0.000000e+00
1
Step 145000
Ar 9.409048e-01 0.000000e+00 0.000000e+00
1
Step 146000
Ar 9.423295e-01 0.000000e+00 0.000000e+00
1
Step 147000
Ar 9.282922e-01 0.000000e+00 0.000000e+00
1
Step 148000
Ar 9.295431e-01 0.000000e+00 0.000000e+00
1
Step 149000
Ar 9.323282e-01 0.000000e+00 0.000000e+00
1
Step 150000
Ar 9.267883e-01 0.000000e+00 0.000000e+00
1
Step 151000
Ar 9.227122e-01 0.000000e+00 0.000000e+00
1
Step 152000
Ar 9.225127e-01 0.000000e+00 0.000000e+00
1
Step 153000
Ar 9.205096e-01 0.000000e+00 0.000000e+00
1
Step 154000
Ar 9.248485e-01 0.000000e+00 0.000000e+00
1
Step 155000
Ar 1.043761e+00 0.000000e+00 0.000000e+00
1
Step 156000
Ar 1.043750e+00 0.000000e+00 0.000000e+00
1
Step 157000
Ar 1.045452e+00 0.000000e+00 0.000000e+00
1
Step 158000
Ar 1.048721e+00 0.000000e+00 0.000000e+00
1
Step 159000
Ar 1.045733e+00 0.000000e+00 0.000000e+00
1
Step 160000
Ar 1.046063e+00 0.000000e+00 0.000000e+00
1
Step 161000
Ar 9.882286e-01 0.000000e+00 0.000000e+00
1
Step 162000
Ar 1.021059e+00 0.000000e+00 0.000000e+00
1
Step 163000
Ar 1.046817e+00 0.000000e+00 0.000000e+00
1
Step 164000
Ar 1.049621e+00 0.000000e+00 0.000000e+00
1
Step 165000
Ar 1.047589e+00 0.000000e+00 0.000000e+00
1
Step 166000
Ar 1.047699e+00 0.000000e+00 0.000000e+00
1
Step 167000
Ar 1.047058e+00 0.000000e+00 0.000000e+00
1
Step 168000
Ar 1.043893e+00 0.000000e+00 0.000000e+00
1
Step 169000
Ar 1.045601e+00 0.000000e+00 0.000000e+00
1
Step 170000
Ar 1.025257e+00 0.000000e+00 0.000000e+00
1
Step 171000
Ar 9.682501e-01 0.000000e+00 0.000000e+00
1
Step 172000
Ar 9.898163e-01 0.000000e+00 0.000000e+00
1
Step 173000
Ar 9.863273e-01 0.000000e+00 0.000000e+00
1
Step 174000
Ar 9.260607e-01 0.000000e+00 0.000000e+00
1
Step 175000
Ar 1.014208e+00 0.000000e+00 0.000000e+00
1
Step 176000
Ar 9.067051e-01 0.000000e+00 0.000000e+00
1
Step 177000
Ar 9.734857e-01 0.000000e+00 0.000000e+00
1
Step 178000
Ar 9.709743e-01 0.000000e+00 0.000000e+00
1
Step 179000
Ar 1.044738e+00 0.000000e+00 0.000000e+00
1
Step 180000
Ar 1.042974e+00 0.000000e+00 0.000000e+00
1
Step 181000
Ar 1.041561e+00 0.000000e+00 0.000000e+00
1
Step 182000
Ar 1.052802e+00 0.000000e+00 0.000000e+00
1
Step 183000
Ar 1.045313e+00 0.000000e+00 0.000000e+00
1
Step 184000
Ar 1.048636e+00 0.000000e+00 0.000000e+00
1
Step 185000
Ar 1.050463e+00 0.000000e+00 0.000000e+00
1
Step 186000
Ar 1.054462e+00 0.000000e+00 0.000000e+00
1
Step 187000
Ar 1.056302e+00 0.000000e+00 0.000000e+00
1
Step 188000
Ar 1.055118e+00 0.000000e+00 0.000000e+00
1
Step 189000
Ar 1.049770e+00 0.000000e+00 0.000000e+00
1
Step 190000
Ar 1.063056e+00 0.000000e+00 0.000000e+00
1
Step 191000
Ar 1.068705e+00 0.000000e+00 0.000000e+00
1
Step 192000
Ar 9.593741e-01 0.000000e+00 0.000000e+00
1
Step 193000
Ar 1.009719e+00 0.000000e+00 0.000000e+00
1
Step 194000
Ar 1.063036e+00 0.000000e+00 0.000000e+00
1
Step 195000
Ar 1.064495e+00 0.000000e+00 0.000000e+00
1
Step 196000
Ar 1.062626e+00 0.000000e+00 0.000000e+00
1
Step 197000
Ar 8.896273e-01 0.000000e+00 0.000000e+00
1
Step 198000
Ar 1.036392e+00 0.000000e+00 0.000000e+00
1
Step 199000
Ar 1.046125e+00 0.000000e+00 0.000000e+00
1
Step 200000
Ar 1.041009e+00 0.000000e+00 0.000000e+00
1
Step 201000
Ar 1.031942e+00 0.000000e+00 0.000000e+00
1
Step 202000
Ar 1.052747e+00 0.000000e+00 0.000000e+00
1
Step 203000
Ar 1.045268e+00 0.000000e+00 0.000000e+00
1
Step 204000
Ar 1.048113e+00 0.000000e+00 0.000000e+00
1
Step 205000
Ar 1.023734e+00 0.000000e+00 0.000000e+00
1
Step 206000
Ar 1.024273e+00 0.000000e+00 0.000000e+00
1
Step 207000
Ar 1.034459e+00 0.000000e+00 0.000000e+00
1
Step 208000
Ar 1.026529e+00 0.000000e+00 0.000000e+00
1
Step 209000
Ar 1.025439e+00 0.000000e+00 0.000000e+00
1
Step 210000
Ar 1.026032e+00 0.000000e+00 0.000000e+00
1
Step 211000
Ar 1.027090e+00 0.000000e+00 0.000000e+00
1
Step 212000
Ar 1.031226e+00 0.000000e+00 0.000000e+00
1
Step 213000
Ar 1.025920e+00 0.000000e+00 0.000000e+00
1
Step 214000
Ar 9.668236e-01 0.000000e+00 0.000000e+00
1
Step 215000
Ar 9.381701e-01 0.000000e+00 0.000000e+00
1
Step 216000
Ar 9.294522e-01 0.000000e+00 0.000000e+00
1
Step 217000
Ar 1.071825e+00 0.000000e+00 0.000000e+00
1
Step 218000
Ar 1.073708e+00 0.000000e+00 0.000000e+00
1
Step 219000
Ar 1.080075e+00 0.000000e+00 0.000000e+00
1
Step 220000
Ar 9.235275e-01 0.000000e+00 0.000000e+00
1
Step 221000
Ar 9.152144e-01 0.000000e+00 0.000000e+00
1
Step 222000
Ar 9.328834e-01 0.000000e+00 0.000000e+00
1
Step 223000
Ar 9.629588e-01 0.000000e+00 0.000000e+00
1
Step 224000
Ar 9.677398e-01 0.000000e+00 0.000000e+00
1
Step 225000
Ar 8.680625e-01 0.000000e+00 0.000000e+00
1
Step 226000
Ar 9.885663e-01 0.000000e+00 0.000000e+00
1
Step 227000
Ar 9.842476e-01 0.000000e+00 0.000000e+00
1
Step 228000
Ar 1.090997e+00 0.000000e+00 0.000000e+00
1
Step 229000
Ar 8.244935e-01 0.000000e+00 0.000000e+00
1
Step 230000
Ar 1.022697e+00 0.000000e+00 0.000000e+00
1
Step 231000
Ar 1.064461e+00 0.000000e+00 0.000000e+00
1
Step 232000
Ar 1.115375e+00 0.000000e+00 0.000000e+00
1
Step 233000
Ar 1.039320e+00 0.000000e+00 0.000000e+00
1
Step 234000
Ar 9.164107e-01 0.000000e+00 0.000000e+00
1
Step 235000
Ar 9.792257e-01 0.000000e+00 0.000000e+00
1
Step 236000
Ar 8.902302e-01 0.000000e+00 0.000000e+00
1
Step 237000
Ar 9.503211e-01 0.000000e+00 0.000000e+00
1
Step 238000
Ar 9.567986e-01 0.000000e+00 0.000000e+00
1
Step 239000
Ar 8.837510e-01 0.000000e+00 0.000000e+00
1
Step 240000
Ar 8.891452e-01 0.000000e+00 0.000000e+00
1
Step 241000
Ar 8.571354e-01 0.000000e+00 0.000000e+00
1
Step 242000
Ar 9.585552e-01 0.000000e+00 0.000000e+00
1
Step 243000
Ar 9.757429e-01 0.000000e+00 0.000000e+00
1
Step 244000
Ar 9.562954e-01 0.000000e+00 0.000000e+00
1
Step 245000
Ar 1.069009e+00 0.000000e+00 0.000000e+00
1
Step 246000
Ar 1.086063e+00 0.000000e+00 0.000000e+00
1
Step 247000
Ar 8.883933e-01 0.000000e+00 0.000000e+00
1
Step 248000
Ar 7.457907e-01 0.000000e+00 0.000000e+00
1
Step 249000
Ar 1.059952e+00 0.000000e+00 0.000000e+00
1
Step 250000
Ar 1.123846e+00 0.000000e+00 0.000000e+00
1
Step 251000
Ar 9.893970e-01 0.000000e+00 0.000000e+00
1
Step 252000
Ar 1.042742e+00 0.000000e+00 0.000000e+00
1
Step 253000
Ar 1.056514e+00 0.000000e+00 0.000000e+00
1
Step 254000
Ar 9.347214e-01 0.000000e+00 0.000000e+00
1
Step 255000
Ar 1.084735e+00 0.000000e+00 0.000000e+00
1
Step 256000
Ar 8.331952e-01 0.000000e+00 0.000000e+00
1
Step 257000
Ar 8.168418e-01 0.000000e+00 0.000000e+00
1
Step 258000
Ar 8.338244e-01 0.000000e+00 0.000000e+00
1
Step 259000
Ar 8.836052e-01 0.000000e+00 0.000000e+00
1
Step 260000
Ar 1.050970e+00 0.000000e+00 0.000000e+00
1
Step 261000
Ar 9.790721e-01 0.000000e+00 0.000000e+00
1
Step 262000
Ar 8.380121e-01 0.000000e+00 0.000000e+00
1
Step 263000
Ar 7.366290e-01 0.000000e+00 0.000000e+00
1
Step 264000
Ar 1.127325e+00 0.000000e+00 0.000000e+00
1
Step 265000
Ar 1.046697e+00 0.000000e+00 0.000000e+00
1
Step 266000
Ar 8.321306e-01 0.000000e+00 0.000000e+00
1
Step 267000
Ar 1.082518e+00 0.000000e+00 0.000000e+00
1
Step 268000
Ar 1.018057e+00 0.000000e+00 0.000000e+00
1
Step 269000
Ar 9.665081e-01 0.000000e+00 0.000000e+00
1
Step 270000
Ar 9.681281e-01 0.000000e+00 0.000000e+00
1
Step 271000
Ar 1.040415e+00 0.000000e+00 0.000000e+00
1
Step 272000
Ar 8.316642e-01 0.000000e+00 0.000000e+00
1
Step 273000
Ar 1.083510e+00 0.000000e+00 0.000000e+00
1
Step 274000
Ar 1.078177e+00 0.000000e+00 0.000000e+00
1
Step 275000
Ar 1.023954e+00 0.000000e+00 0.000000e+00
1
Step 276000
Ar 8.439837e-01 0.000000e+00 0.000000e+00
1
Step 277000
Ar 8.290728e-01 0.000000e+00 0.000000e+00
1
Step 278000
Ar 9.663022e-01 0.000000e+00 0.000000e+00
1
Step 279000
Ar 1.083980e+00 0.000000e+00 0.000000e+00
1
Step 280000
Ar 8.267133e-01 0.000000e+00 0.000000e+00
1
Step 281000
Ar 8.571581e-01 0.000000e+00 0.000000e+00
1
Step 282000
Ar 9.324736e-01 0.000000e+00 0.000000e+00
1
Step 283000
Ar 1.080677e+00 0.000000e+00 0.000000e+00
1
Step 284000
Ar 1.083743e+00 0.000000e+00 0.000000e+00
1
Step 285000
Ar 9.046160e-01 0.000000e+00 0.000000e+00
1
Step 286000
Ar 8.511058e-01 0.000000e+00 0.000000e+00
1
Step 287000
Ar 7.553676e-01 0.000000e+00 0.000000e+00
1
Step 288000
Ar 9.498692e-01 0.000000e+00 0.000000e+00
1
Step 289000
Ar 9.542767e-01 0.000000e+00 0.000000e+00
1
Step 290000
Ar 9.471422e-01 0.000000e+00 0.000000e+00
1
Step 291000
Ar 9.455493e-01 0.000000e+00 0.000000e+00
1
Step 292000
Ar 9.440001e-01 0.000000e+00 0.000000e+00
1
Step 293000
Ar 9.246501e-01 0.000000e+00 0.000000e+00
1
Step 294000
Ar 8.541004e-01 0.000000e+00 0.000000e+00
1
Step 295000
Ar 1.037352e+00 0.000000e+00 0.000000e+00
1
Step 296000
Ar 8.811454e-01 0.000000e+00 0.000000e+00
1
Step 297000
Ar 1.050880e+00 0.000000e+00 0.000000e+00
1
Step 298000
Ar 1.048822e+00 0.000000e+00 0.000000e+00
1
Step 299000
Ar 9.407375e-01 0.000000e+00 0.000000e+00
1
Step 300000
Ar 8.156300e-01 0.000000e+00 0.000000e+00
1
Step 301000
Ar 8.940777e-01 0.000000e+00 0.000000e+00
1
Step 302000
Ar 1.003782e+00 0.000000e+00 0.000000e+00
1
Step 303000
Ar 1.048953e+00 0.000000e+00 0.000000e+00
1
Step 304000
Ar 1.052814e+00 0.000000e+00 0.000000e+00
1
Step 305000
Ar 1.057359e+00 0.000000e+00 0.000000e+00
1
Step 306000
Ar 7.484655e-01 0.000000e+00 0.000000e+00
1
Step 307000
Ar 1.000628e+00 0.000000e+00 0.000000e+00
1
Step 308000
Ar 8.625660e-01 0.000000e+00 0.000000e+00
1
Step 309000
Ar 8.485765e-01 0.000000e+00 0.000000e+00
1
Step 310000
Ar 8.358091e-01 0.000000e+00 0.000000e+00
1
Step 311000
Ar 9.275371e-01 0.000000e+00 0.000000e+00
1
Step 312000
Ar 9.903270e-01 0.000000e+00 0.000000e+00
1
Step 313000
Ar 9.354098e-01 0.000000e+00 0.000000e+00
1
Step 314000
Ar 9.429604e-01 0.000000e+00 0.000000e+00
1
Step 315000
Ar 9.079356e-01 0.000000e+00 0.000000e+00
1
Step 316000
Ar 1.088945e+00 0.000000e+00 0.000000e+00
1
Step 317000
Ar 1.017495e+00 0.000000e+00 0.000000e+00
1
Step 318000
Ar 9.296987e-01 0.000000e+00 0.000000e+00
1
Step 319000
Ar 1.023835e+00 0.000000e+00 0.000000e+00
1
Step 320000
Ar 1.102093e+00 0.000000e+00 0.000000e+00
1
Step 321000
Ar 1.081790e+00 0.000000e+00 0.000000e+00
1
Step 322000
Ar 1.074406e+00 0.000000e+00 0.000000e+00
1
Step 323000
Ar 1.071234e+00 0.000000e+00 0.000000e+00
1
Step 324000
Ar 1.075033e+00 0.000000e+00 0.000000e+00
1
Step 325000
Ar 1.096747e+00 0.000000e+00 0.000000e+00
1
Step 326000
Ar 1.075945e+00 0.000000e+00 0.000000e+00
1
Step 327000
Ar 1.082087e+00 0.000000e+00 0.000000e+00
1
Step 328000
Ar 1.076249e+00 0.000000e+00 0.000000e+00
1
Step 329000
Ar 9.676836e-01 0.000000e+00 0.000000e+00
1
Step 330000
Ar 1.094825e+00 0.000000e+00 0.000000e+00
1
Step 331000
Ar 1.098974e+00 0.000000e+00 0.000000e+00
1
Step 332000
Ar 1.073755e+00 0.000000e+00 0.000000e+00
1
Step 333000
Ar 1.077682e+00 0.000000e+00 0.000000e+00
1
Step 334000
Ar 1.072380e+00 0.000000e+00 0.000000e+00
1
Step 335000
Ar 1.075413e+00 0.000000e+00 0.000000e+00
1
Step 336000
Ar 1.075510e+00 0.000000e+00 0.000000e+00
1
Step 337000
Ar 1.071738e+00 0.000000e+00 0.000000e+00
1
Step 338000
Ar 1.075144e+00 0.000000e+00 0.000000e+00
1
Step 339000
Ar 1.076434e+00 0.000000e+00 0.000000e+00
1
Step 340000
Ar 1.073511e+00 0.000000e+00 0.000000e+00
1
Step 341000
Ar 1.075573e+00 0.000000e+00 0.000000e+00
1
Step 342000
Ar 1.071919e+00 0.000000e+00 0.000000e+00
1
Step 343000
Ar 1.077597e+00 0.000000e+00 0.000000e+00
1
Step 344000
Ar 1.076223e+00 0.000000e+00 0.000000e+00
1
Step 345000
Ar 1.078413e+00 0.000000e+00 0.000000e+00
1
Step 346000
Ar 1.099322e+00 0.000000e+00 0.000000e+00
1
Step 347000
Ar 1.116876e+00 0.000000e+00 0.000000e+00
1
Step 348000
Ar 1.093039e+00 0.000000e+00 0.000000e+00
1
Step 349000
Ar 7.384542e-01 0.000000e+00 0.000000e+00
1
Step 350000
Ar 8.872895e-01 0.000000e+00 0.000000e+00
1
Step 351000
Ar 1.097610e+00 0.000000e+00 0.000000e+00
1
Step 352000
Ar 1.077793e+00 0.000000e+00 0.000000e+00
1
Step 353000
Ar 1.079378e+00 0.000000e+00 0.000000e+00
1
Step 354000
Ar 1.080647e+00 0.000000e+00 0.000000e+00
1
Step 355000
Ar 1.084031e+00 0.000000e+00 0.000000e+00
1
Step 356000
Ar 1.080785e+00 0.000000e+00 0.000000e+00
1
Step 357000
Ar 1.077160e+00 0.000000e+00 0.000000e+00
1
Step 358000
Ar 1.078870e+00 0.000000e+00 0.000000e+00
1
Step 359000
Ar 1.100704e+00 0.000000e+00 0.000000e+00
1
Step 360000
Ar 1.073567e+00 0.000000e+00 0.000000e+00
1
Step 361000
Ar 1.056589e+00 0.000000e+00 0.000000e+00
1
Step 362000
Ar 1.121623e+00 0.000000e+00 0.000000e+00
1
Step 363000
Ar 8.740139e-01 0.000000e+00 0.000000e+00
1
Step 364000
Ar 1.099503e+00 0.000000e+00 0.000000e+00
1
Step 365000
Ar 1.053247e+00 0.000000e+00 0.000000e+00
1
Step 366000
Ar 9.754568e-01 0.000000e+00 0.000000e+00
1
Step 367000
Ar 9.928601e-01 0.000000e+00 0.000000e+00
1
Step 368000
Ar 1.202341e+00 0.000000e+00 0.000000e+00
1
Step 369000
Ar 9.729939e-01 0.000000e+00 0.000000e+00
1
Step 370000
Ar 1.078336e+00 0.000000e+00 0.000000e+00
1
Step 371000
Ar 1.015832e+00 0.000000e+00 0.000000e+00
1
Step 372000
Ar 1.000952e+00 0.000000e+00 0.000000e+00
1
Step 373000
Ar 9.532884e-01 0.000000e+00 0.000000e+00
1
Step 374000
Ar 1.004614e+00 0.000000e+00 0.000000e+00
1
Step 375000
Ar 9.084618e-01 0.000000e+00 0.000000e+00
1
Step 376000
Ar 1.084993e+00 0.000000e+00 0.000000e+00
1
Step 377000
Ar 1.089771e+00 0.000000e+00 0.000000e+00
1
Step 378000
Ar 1.090370e+00 0.000000e+00 0.000000e+00
1
Step 379000
Ar 6.814440e-01 0.000000e+00 0.000000e+00
1
Step 380000
Ar 1.112182e+00 0.000000e+00 0.000000e+00
1
Step 381000
Ar 1.107438e+00 0.000000e+00 0.000000e+00
1
Step 382000
Ar 1.106439e+00 0.000000e+00 0.000000e+00
1
Step 383000
Ar 1.103480e+00 0.000000e+00 0.000000e+00
1
Step 384000
Ar 1.101388e+00 0.000000e+00 0.000000e+00
1
Step 385000
Ar 1.108527e+00 0.000000e+00 0.000000e+00
1
Step 386000
Ar 1.104837e+00 0.000000e+00 0.000000e+00
1
Step 387000
Ar 1.104220e+00 0.000000e+00 0.000000e+00
1
Step 388000
Ar 1.084467e+00 0.000000e+00 0.000000e+00
1
Step 389000
Ar 9.871939e-01 0.000000e+00 0.000000e+00
1
Step 390000
Ar 1.013501e+00 0.000000e+00 0.000000e+00
1
Step 391000
Ar 9.246873e-01 0.000000e+00 0.000000e+00
1
Step 392000
Ar 1.093213e+00 0.000000e+00 0.000000e+00
1
Step 393000
Ar 1.087178e+00 0.000000e+00 0.000000e+00
1
Step 394000
Ar 1.091085e+00 0.000000e+00 0.000000e+00
1
Step 395000
Ar 1.166868e+00 0.000000e+00 0.000000e+00
1
Step 396000
Ar 8.723805e-01 0.000000e+00 0.000000e+00
1
Step 397000
Ar 8.791529e-01 0.000000e+00 0.000000e+00
1
Step 398000
Ar 1.121975e+00 0.000000e+00 0.000000e+00
1
Step 399000
Ar 1.121446e+00 0.000000e+00 0.000000e+00
1
Step 400000
Ar 1.129444e+00 0.000000e+00 0.000000e+00
1
Step 401000
Ar 1.124818e+00 0.000000e+00 0.000000e+00
1
Step 402000
Ar 1.127083e+00 0.000000e+00 0.000000e+00
1
Step 403000
Ar 1.126789e+00 0.000000e+00 0.000000e+00
1
Step 404000
Ar 1.124871e+00 0.000000e+00 0.000000e+00
1
Step 405000
Ar 1.123347e+00 0.000000e+00 0.000000e+00
1
Step 406000
Ar 1.119821e+00 0.000000e+00 0.000000e+00
1
Step 407000
Ar 1.032576e+00 0.000000e+00 0.000000e+00
1
Step 408000
Ar 9.447286e-01 0.000000e+00 0.000000e+00
1
Step 409000
Ar 7.540836e-01 0.000000e+00 0.000000e+00
1
Step 410000
Ar 1.081419e+00 0.000000e+00 0.000000e+00
1
Step 411000
Ar 1.081235e+00 0.000000e+00 0.000000e+00
1
Step 412000
Ar 1.078862e+00 0.000000e+00 0.000000e+00
1
Step 413000
Ar 1.082587e+00 0.000000e+00 0.000000e+00
1
Step 414000
Ar 1.080681e+00 0.000000e+00 0.000000e+00
1
Step 415000
Ar 1.085305e+00 0.000000e+00 0.000000e+00
1
Step 416000
Ar 1.077203e+00 0.000000e+00 0.000000e+00
1
Step 417000
Ar 7.952767e-01 0.000000e+00 0.000000e+00
1
Step 418000
Ar 9.091431e-01 0.000000e+00 0.000000e+00
1
Step 419000
Ar 8.535507e-01 0.000000e+00 0.000000e+00
1
Step 420000
Ar 7.540935e-01 0.000000e+00 0.000000e+00
1
Step 421000
Ar 9.743848e-01 0.000000e+00 0.000000e+00
1
Step 422000
Ar 1.103403e+00 0.000000e+00 0.000000e+00
1
Step 423000
Ar 9.077594e-01 0.000000e+00 0.000000e+00
1
Step 424000
Ar 1.020379e+00 0.000000e+00 0.000000e+00
1
Step 425000
Ar 9.435071e-01 0.000000e+00 0.000000e+00
1
Step 426000
Ar 7.609469e-01 0.000000e+00 0.000000e+00
1
Step 427000
Ar 9.350590e-01 0.000000e+00 0.000000e+00
1
Step 428000
Ar 1.080487e+00 0.000000e+00 0.000000e+00
1
Step 429000
Ar 1.086288e+00 0.000000e+00 0.000000e+00
1
Step 430000
Ar 1.075133e+00 0.000000e+00 0.000000e+00
1
Step 431000
Ar 1.080706e+00 0.000000e+00 0.000000e+00
1
Step 432000
Ar 1.081321e+00 0.000000e+00 0.000000e+00
1
Step 433000
Ar 1.304341e+00 0.000000e+00 0.000000e+00
1
Step 434000
Ar 1.002051e+00 0.000000e+00 0.000000e+00
1
Step 435000
Ar 7.902837e-01 0.000000e+00 0.000000e+00
1
Step 436000
Ar 1.130426e+00 0.000000e+00 0.000000e+00
1
Step 437000
Ar 1.063226e+00 0.000000e+00 0.000000e+00
1
Step 438000
Ar 8.509151e-01 0.000000e+00 0.000000e+00
1
Step 439000
Ar 1.007226e+00 0.000000e+00 0.000000e+00
1
Step 440000
Ar 1.112865e+00 0.000000e+00 0.000000e+00
1
Step 441000
Ar 9.254185e-01 0.000000e+00 0.000000e+00
1
Step 442000
Ar 1.162427e+00 0.000000e+00 0.000000e+00
1
Step 443000
Ar 1.139359e+00 0.000000e+00 0.000000e+00
1
Step 444000
Ar 1.038764e+00 0.000000e+00 0.000000e+00
1
Step 445000
Ar 1.085437e+00 0.000000e+00 0.000000e+00
1
Step 446000
Ar 8.266291e-01 0.000000e+00 0.000000e+00
1
Step 447000
Ar 1.049152e+00 0.000000e+00 0.000000e+00
1
Step 448000
Ar 8.846838e-01 0.000000e+00 0.000000e+00
1
Step 449000
Ar 1.238178e+00 0.000000e+00 0.000000e+00
1
Step 450000
Ar 1.021910e+00 0.000000e+00 0.000000e+00
1
Step 451000
Ar -9.733121e-01 0.000000e+00 0.000000e+00
1
Step 452000
Ar -1.028106e+00 0.000000e+00 0.000000e+00
1
Step 453000
Ar -1.010624e+00 0.000000e+00 0.000000e+00
1
Step 454000
Ar -9.961427e-01 0.000000e+00 0.000000e+00
1
Step 455000
Ar -9.976702e-01 0.000000e+00 0.000000e+00
1
Step 456000
Ar -1.004358e+00 0.000000e+00 0.000000e+00
1
Step 457000
Ar -1.016920e+00 0.000000e+00 0.000000e+00
1
Step 458000
Ar -9.648231e-01 0.000000e+00 0.000000e+00
1
Step 459000
Ar -9.763907e-01 0.000000e+00 0.000000e+00
1
Step 460000
Ar -9.765474e-01 0.000000e+00 0.000000e+00
1
Step 461000
Ar -9.813756e-01 0.000000e+00 0.000000e+00
1
Step 462000
Ar -9.788176e-01 0.000000e+00 0.000000e+00
1
Step 463000
Ar -9.774551e-01 0.000000e+00 0.000000e+00
1
Step 464000
Ar -9.757171e-01 0.000000e+00 0.000000e+00
1
Step 465000
Ar -9.793487e-01 0.000000e+00 0.000000e+00
1
Step 466000
Ar -9.715039e-01 0.000000e+00 0.000000e+00
1
Step 467000
Ar -9.790940e-01 0.000000e+00 0.000000e+00
1
Step 468000
Ar -9.782385e-01 0.000000e+00 0.000000e+00
1
Step 469000
Ar -9.768319e-01 0.000000e+00 0.000000e+00
1
Step 470000
Ar -9.778345e-01 0.000000e+00 0.000000e+00
1
Step 471000
Ar -9.686785e-01 0.000000e+00 0.000000e+00
1
Step 472000
Ar -1.026810e+00 0.000000e+00 0.000000e+00
1
Step 473000
Ar -1.012047e+00 0.000000e+00 0.000000e+00
1
Step 474000
Ar -1.008634e+00 0.000000e+00 0.000000e+00
1
Step 475000
Ar -1.020090e+00 0.000000e+00 0.000000e+00
1
Step 476000
Ar -1.025084e+00 0.000000e+00 0.000000e+00
1
Step 477000
Ar -1.014401e+00 0.000000e+00 0.000000e+00
1
Step 478000
Ar -9.645393e-01 0.000000e+00 0.000000e+00
1
Step 479000
Ar -9.517738e-01 0.000000e+00 0.000000e+00
1
Step 480000
Ar -9.523590e-01 0.000000e+00 0.000000e+00
1
Step 481000
Ar -9.444261e-01 0.000000e+00 0.000000e+00
1
Step 482000
Ar -9.461483e-01 0.000000e+00 0.000000e+00
1
Step 483000
Ar -9.409092e-01 0.000000e+00 0.000000e+00
1
Step 484000
Ar -9.743145e-01 0.000000e+00 0.000000e+00
1
Step 485000
Ar -1.030278e+00 0.000000e+00 0.000000e+00
1
Step 486000
Ar -1.057566e+00 0.000000e+00 0.000000e+00
1
Step 487000
Ar -1.063247e+00 0.000000e+00 0.000000e+00
1
Step 488000
Ar -1.054892e+00 0.000000e+00 0.000000e+00
1
Step 489000
Ar -1.053912e+00 0.000000e+00 0.000000e+00
1
Step 490000
Ar -1.053413e+00 0.000000e+00 0.000000e+00
1
Step 491000
Ar -1.053876e+00 0.000000e+00 0.000000e+00
1
Step 492000
Ar -1.051543e+00 0.000000e+00 0.000000e+00
1
Step 493000
Ar -9.809178e-01 0.000000e+00 0.000000e+00
1
Step 494000
Ar -1.040116e+00 0.000000e+00 0.000000e+00
1
Step 495000
Ar -1.013963e+00 0.000000e+00 0.000000e+00
1
Step 496000
Ar -9.418661e-01 0.000000e+00 0.000000e+00
1
Step 497000
Ar -9.989804e-01 0.000000e+00 0.000000e+00
1
Step 498000
Ar -1.009328e+00 0.000000e+00 0.000000e+00
1
Step 499000
Ar -1.014465e+00 0.000000e+00 0.000000e+00
1
Step 500000
Ar -9.967490e-01 0.000000e+00 0.000000e+00
1
Step 501000
Ar -9.741434e-01 0.000000e+00 0.000000e+00
1
Step 502000
Ar -9.863651e-01 0.000000e+00 0.000000e+00
1
Step 503000
Ar -1.058651e+00 0.000000e+00 0.000000e+00
1
Step 504000
Ar -1.052657e+00 0.000000e+00 0.000000e+00
1
Step 505000
Ar -1.057107e+00 0.000000e+00 0.000000e+00
1
Step 506000
Ar -1.055762e+00 0.000000e+00 0.000000e+00
1
Step 507000
Ar -9.843549e-01 0.000000e+00 0.000000e+00
1
Step 508000
Ar -9.874419e-01 0.000000e+00 0.000000e+00
1
Step 509000
Ar -1.013827e+00 0.000000e+00 0.000000e+00
1
Step 510000
Ar -1.011201e+00 0.000000e+00 0.000000e+00
1
Step 511000
Ar -1.015145e+00 0.000000e+00 0.000000e+00
1
Step 512000
Ar -9.702588e-01 0.000000e+00 0.000000e+00
1
Step 513000
Ar -9.706297e-01 0.000000e+00 0.000000e+00
1
Step 514000
Ar -9.691076e-01 0.000000e+00 0.000000e+00
1
Step 515000
Ar -9.688011e-01 0.000000e+00 0.000000e+00
1
Step 516000
Ar -9.692646e-01 0.000000e+00 0.000000e+00
1
Step 517000
Ar -1.035258e+00 0.000000e+00 0.000000e+00
1
Step 518000
Ar -9.327341e-01 0.000000e+00 0.000000e+00
1
Step 519000
Ar -1.007697e+00 0.000000e+00 0.000000e+00
1
Step 520000
Ar -1.040278e+00 0.000000e+00 0.000000e+00
1
Step 521000
Ar -1.026646e+00 0.000000e+00 0.000000e+00
1
Step 522000
Ar -1.011963e+00 0.000000e+00 0.000000e+00
1
Step 523000
Ar -1.010289e+00 0.000000e+00 0.000000e+00
1
Step 524000
Ar -9.879976e-01 0.000000e+00 0.000000e+00
1
Step 525000
Ar -9.357918e-01 0.000000e+00 0.000000e+00
1
Step 526000
Ar -9.303761e-01 0.000000e+00 0.000000e+00
1
Step 527000
Ar -1.026387e+00 0.000000e+00 0.000000e+00
1
Step 528000
Ar -1.042196e+00 0.000000e+00 0.000000e+00
1
Step 529000
Ar -9.552511e-01 0.000000e+00 0.000000e+00
1
Step 530000
Ar -1.029121e+00 0.000000e+00 0.000000e+00
1
Step 531000
Ar -1.040483e+00 0.000000e+00 0.000000e+00
1
Step 532000
Ar -1.037609e+00 0.000000e+00 0.000000e+00
1
Step 533000
Ar -9.897213e-01 0.000000e+00 0.000000e+00
1
Step 534000
Ar -9.671972e-01 0.000000e+00 0.000000e+00
1
Step 535000
Ar -9.923858e-01 0.000000e+00 0.000000e+00
1
Step 536000
Ar -1.063702e+00 0.000000e+00 0.000000e+00
1
Step 537000
Ar -8.952822e-01 0.000000e+00 0.000000e+00
1
Step 538000
Ar -8.929499e-01 0.000000e+00 0.000000e+00
1
Step 539000
Ar -9.163805e-01 0.000000e+00 0.000000e+00
1
Step 540000
Ar -9.026276e-01 0.000000e+00 0.000000e+00
1
Step 541000
Ar -1.016355e+00 0.000000e+00 0.000000e+00
1
Step 542000
Ar -9.124091e-01 0.000000e+00 0.000000e+00
1
Step 543000
Ar -9.368719e-01 0.000000e+00 0.000000e+00
1
Step 544000
Ar -9.537886e-01 0.000000e+00 0.000000e+00
1
Step 545000
Ar -9.392059e-01 0.000000e+00 0.000000e+00
1
Step 546000
Ar -9.360164e-01 0.000000e+00 0.000000e+00
1
Step 547000
Ar -9.406873e-01 0.000000e+00 0.000000e+00
1
Step 548000
Ar -9.202389e-01 0.000000e+00 0.000000e+00
1
Step 549000
Ar -9.172944e-01 0.000000e+00 0.000000e+00
1
Step 550000
Ar -1.001008e+00 0.000000e+00 0.000000e+00
1
Step 551000
Ar -9.534286e-01 0.000000e+00 0.000000e+00
1
Step 552000
Ar -9.399963e-01 0.000000e+00 0.000000e+00
1
Step 553000
Ar -9.455890e-01 0.000000e+00 0.000000e+00
1
Step 554000
Ar -9.496942e-01 0.000000e+00 0.000000e+00
1
Step 555000
Ar -9.422129e-01 0.000000e+00 0.000000e+00
1
Step 556000
Ar -1.020549e+00 0.000000e+00 0.000000e+00
1
Step 557000
Ar -1.014538e+00 0.000000e+00 0.000000e+00
1
Step 558000
Ar -1.219558e+00 0.000000e+00 0.000000e+00
1
Step 559000
Ar -8.909688e-01 0.000000e+00 0.000000e+00
1
Step 560000
Ar -8.835224e-01 0.000000e+00 0.000000e+00
1
Step 561000
Ar -8.815193e-01 0.000000e+00 0.000000e+00
1
Step 562000
Ar -9.517347e-01 0.000000e+00 0.000000e+00
1
Step 563000
Ar -9.565887e-01 0.000000e+00 0.000000e+00
1
Step 564000
Ar -8.746525e-01 0.000000e+00 0.000000e+00
1
Step 565000
Ar -8.768934e-01 0.000000e+00 0.000000e+00
1
Step 566000
Ar -8.802795e-01 0.000000e+00 0.000000e+00
1
Step 567000
Ar -8.815135e-01 0.000000e+00 0.000000e+00
1
Step 568000
Ar -9.894659e-01 0.000000e+00 0.000000e+00
1
Step 569000
Ar -1.068934e+00 0.000000e+00 0.000000e+00
1
Step 570000
Ar -9.115134e-01 0.000000e+00 0.000000e+00
1
Step 571000
Ar -9.936057e-01 0.000000e+00 0.000000e+00
1
Step 572000
Ar -1.079059e+00 0.000000e+00 0.000000e+00
1
Step 573000
Ar -1.080507e+00 0.000000e+00 0.000000e+00
1
Step 574000
Ar -1.078050e+00 0.000000e+00 0.000000e+00
1
Step 575000
Ar -1.010223e+00 0.000000e+00 0.000000e+00
1
Step 576000
Ar -9.906942e-01 0.000000e+00 0.000000e+00
1
Step 577000
Ar -1.033767e+00 0.000000e+00 0.000000e+00
1
Step 578000
Ar -1.064568e+00 0.000000e+00 0.000000e+00
1
Step 579000
Ar -1.061503e+00 0.000000e+00 0.000000e+00
1
Step 580000
Ar -9.971817e-01 0.000000e+00 0.000000e+00
1
Step 581000
Ar -1.011180e+00 0.000000e+00 0.000000e+00
1
Step 582000
Ar -9.938740e-01 0.000000e+00 0.000000e+00
1
Step 583000
Ar -8.229150e-01 0.000000e+00 0.000000e+00
1
Step 584000
Ar -8.748978e-01 0.000000e+00 0.000000e+00
1
Step 585000
Ar -8.762443e-01 0.000000e+00 0.000000e+00
1
Step 586000
Ar -8.756131e-01 0.000000e+00 0.000000e+00
1
Step 587000
Ar -9.838334e-01 0.000000e+00 0.000000e+00
1
Step 588000
Ar -9.924319e-01 0.000000e+00 0.000000e+00
1
Step 589000
Ar -1.009320e+00 0.000000e+00 0.000000e+00
1
Step 590000
Ar -1.051601e+00 0.000000e+00 0.000000e+00
1
Step 591000
Ar -1.011576e+00 0.000000e+00 0.000000e+00
1
Step 592000
Ar -1.013903e+00 0.000000e+00 0.000000e+00
1
Step 593000
Ar -1.075929e+00 0.000000e+00 0.000000e+00
1
Step 594000
Ar -9.178501e-01 0.000000e+00 0.000000e+00
1
Step 595000
Ar -7.937906e-01 0.000000e+00 0.000000e+00
1
Step 596000
Ar -9.960860e-01 0.000000e+00 0.000000e+00
1
Step 597000
Ar -9.988428e-01 0.000000e+00 0.000000e+00
1
Step 598000
Ar -9.999072e-01 0.000000e+00 0.000000e+00
1
Step 599000
Ar -1.001543e+00 0.000000e+00 0.000000e+00
1
Step 600000
Ar -1.000053e+00 0.000000e+00 0.000000e+00
1
Step 601000
Ar -9.979948e-01 0.000000e+00 0.000000e+00
1
Step 602000
Ar -9.939255e-01 0.000000e+00 0.000000e+00
1
Step 603000
Ar -9.995759e-01 0.000000e+00 0.000000e+00
1
Step 604000
Ar -9.984307e-01 0.000000e+00 0.000000e+00
1
Step 605000
Ar -1.003715e+00 0.000000e+00 0.000000e+00
1
Step 606000
Ar -1.005176e+00 0.000000e+00 0.000000e+00
1
Step 607000
Ar -9.985828e-01 0.000000e+00 0.000000e+00
1
Step 608000
Ar -9.989867e-01 0.000000e+00 0.000000e+00
1
Step 609000
Ar -1.004006e+00 0.000000e+00 0.000000e+00
1
Step 610000
Ar -9.996124e-01 0.000000e+00 0.000000e+00
1
Step 611000
Ar -9.993532e-01 0.000000e+00 0.000000e+00
1
Step 612000
Ar -1.073854e+00 0.000000e+00 0.000000e+00
1
Step 613000
Ar -1.047404e+00 0.000000e+00 0.000000e+00
1
Step 614000
Ar -1.030576e+00 0.000000e+00 0.000000e+00
1
Step 615000
Ar -1.036960e+00 0.000000e+00 0.000000e+00
1
Step 616000
Ar -9.926260e-01 0.000000e+00 0.000000e+00
1
Step 617000
Ar -8.290056e-01 0.000000e+00 0.000000e+00
1
Step 618000
Ar -9.687615e-01 0.000000e+00 0.000000e+00
1
Step 619000
Ar -9.412633e-01 0.000000e+00 0.000000e+00
1
Step 620000
Ar -1.088780e+00 0.000000e+00 0.000000e+00
1
Step 621000
Ar -1.097450e+00 0.000000e+00 0.000000e+00
1
Step 622000
Ar -9.969605e-01 0.000000e+00 0.000000e+00
1
Step 623000
Ar -8.798740e-01 0.000000e+00 0.000000e+00
1
Step 624000
Ar -1.153608e+00 0.000000e+00 0.000000e+00
1
Step 625000
Ar -1.138381e+00 0.000000e+00 0.000000e+00
1
Step 626000
Ar -8.713377e-01 0.000000e+00 0.000000e+00
1
Step 627000
Ar -8.664076e-01 0.000000e+00 0.000000e+00
1
Step 628000
Ar -8.658367e-01 0.000000e+00 0.000000e+00
1
Step 629000
Ar -1.095066e+00 0.000000e+00 0.000000e+00
1
Step 630000
Ar -1.192150e+00 0.000000e+00 0.000000e+00
1
Step 631000
Ar -8.829457e-01 0.000000e+00 0.000000e+00
1
Step 632000
Ar -1.051551e+00 0.000000e+00 0.000000e+00
1
Step 633000
Ar -8.793977e-01 0.000000e+00 0.000000e+00
1
Step 634000
Ar -8.593220e-01 0.000000e+00 0.000000e+00
1
Step 635000
Ar -8.634416e-01 0.000000e+00 0.000000e+00
1
Step 636000
Ar -8.606688e-01 0.000000e+00 0.000000e+00
1
Step 637000
Ar -8.584651e-01 0.000000e+00 0.000000e+00
1
Step 638000
Ar -8.568905e-01 0.000000e+00 0.000000e+00
1
Step 639000
Ar -8.612032e-01 0.000000e+00 0.000000e+00
1
Step 640000
Ar -8.575018e-01 0.000000e+00 0.000000e+00
1
Step 641000
Ar -8.561154e-01 0.000000e+00 0.000000e+00
1
Step 642000
Ar -8.588050e-01 0.000000e+00 0.000000e+00
1
Step 643000
Ar -8.617348e-01 0.000000e+00 0.000000e+00
1
Step 644000
Ar -1.018002e+00 0.000000e+00 0.000000e+00
1
Step 645000
Ar -1.107692e+00 0.000000e+00 0.000000e+00
1
Step 646000
Ar -1.104078e+00 0.000000e+00 0.000000e+00
1
Step 647000
Ar -9.940519e-01 0.000000e+00 0.000000e+00
1
Step 648000
Ar -9.722642e-01 0.000000e+00 0.000000e+00
1
Step 649000
Ar -7.608413e-01 0.000000e+00 0.000000e+00
1
Step 650000
Ar -1.061774e+00 0.000000e+00 0.000000e+00
1
Step 651000
Ar -1.075484e+00 0.000000e+00 0.000000e+00
1