1
Step 120000
Ar 1.103951e+00 0.000000e+00 0.000000e+00
1
Step 121000
Ar 1.029509e+00 0.000000e+00 0.000000e+00
1
Step 122000
Ar 1.180005e+00 0.000000e+00 0.000000e+00
1
Step 123000
Ar 1.123460e+00 0.000000e+00 0.000000e+00
1
Step 124000
Ar 7.895450e-01 0.000000e+00 0.000000e+00
1
Step 125000
Ar 7.198900e-01 0.000000e+00 0.000000e+00
1
Step 126000
Ar 1.055301e+00 0.000000e+00 0.000000e+00
1
Step 127000
Ar 1.074509e+00 0.000000e+00 0.000000e+00
1
Step 128000
Ar 9.762407e-01 0.000000e+00 0.000000e+00
1
Step 129000
Ar 1.009218e+00 0.000000e+00 0.000000e+00
1
Step 130000
Ar 1.111238e+00 0.000000e+00 0.000000e+00
1
Step 131000
Ar 9.919302e-01 0.000000e+00 0.000000e+00
1
Step 132000
Ar 9.203222e-01 0.000000e+00 0.000000e+00
1
Step 133000
Ar 9.109383e-01 0.000000e+00 0.000000e+00
1
Step 134000
Ar 8.908575e-01 0.000000e+00 0.000000e+00
1
Step 135000
Ar 1.064241e+00 0.000000e+00 0.000000e+00
1
Step 136000
Ar 9.619333e-01 0.000000e+00 0.000000e+00
1
Step 137000
Ar 9.427993e-01 0.000000e+00 0.000000e+00
1
Step 138000
Ar 1.039244e+00 0.000000e+00 0.000000e+00
1
Step 139000
Ar 1.193822e+00 0.000000e+00 0.000000e+00
1
Step 140000
Ar 1.144848e+00 0.000000e+00 0.000000e+00
1
Step 141000
Ar 1.089571e+00 0.000000e+00 0.000000e+00
1
Step 142000
Ar 1.157445e+00 0.000000e+00 0.000000e+00
1
Step 143000
Ar 1.207062e+00 0.000000e+00 0.000000e+00
1
Step 144000
Ar 1.269820e+00 0.000000e+00 0.000000e+00
1
Step 145000
Ar 1.288864e+00 0.000000e+00 0.000000e+00
1
Step 146000
Ar 1.252765e+00 0.000000e+00 0.000000e+00
1
Step 147000
Ar 1.164892e+00 0.000000e+00 0.000000e+00
1
Step 148000
Ar 1.222796e+00 0.000000e+00 0.000000e+00
1
Step 149000
Ar 1.100109e+00 0.000000e+00 0.000000e+00
1
Step 150000
Ar 1.014346e+00 0.000000e+00 0.000000e+00
1
Step 151000
Ar 1.312943e+00 0.000000e+00 0.000000e+00
1
Step 152000
Ar 1.366900e+00 0.000000e+00 0.000000e+00
1
Step 153000
Ar 1.136998e+00 0.000000e+00 0.000000e+00
1
Step 154000
Ar 1.049663e+00 0.000000e+00 0.000000e+00
1
Step 155000
Ar 9.680659e-01 0.000000e+00 0.000000e+00
1
Step 156000
Ar 8.757393e-01 0.000000e+00 0.000000e+00
1
Step 157000
Ar 8.991616e-01 0.000000e+00 0.000000e+00
1
Step 158000
Ar 9.316357e-01 0.000000e+00 0.000000e+00
1
Step 159000
Ar 8.124696e-01 0.000000e+00 0.000000e+00
1
Step 160000
Ar 8.043575e-01 0.000000e+00 0.000000e+00
1
Step 161000
Ar 7.597111e-01 0.000000e+00 0.000000e+00
1
Step 162000
Ar 7.433766e-01 0.000000e+00 0.000000e+00
1
Step 163000
Ar 8.571213e-01 0.000000e+00 0.000000e+00
1
Step 164000
Ar 8.495652e-01 0.000000e+00 0.000000e+00
1
Step 165000
Ar 8.308099e-01 0.000000e+00 0.000000e+00
1
Step 166000
Ar 8.245236e-01 0.000000e+00 0.000000e+00
1
Step 167000
Ar 9.526196e-01 0.000000e+00 0.000000e+00
1
Step 168000
Ar 9.150578e-01 0.000000e+00 0.000000e+00
1
Step 169000
Ar 1.000581e+00 0.000000e+00 0.000000e+00
1
Step 170000
Ar 9.815470e-01 0.000000e+00 0.000000e+00
1
Step 171000
Ar 1.034082e+00 0.000000e+00 0.000000e+00
1
Step 172000
Ar 1.176930e+00 0.000000e+00 0.000000e+00
1
Step 173000
Ar 1.299822e+00 0.000000e+00 0.000000e+00
1
Step 174000
Ar 1.328853e+00 0.000000e+00 0.000000e+00
1
Step 175000
Ar 1.236269e+00 0.000000e+00 0.000000e+00
1
Step 176000
Ar 1.187555e+00 0.000000e+00 0.000000e+00
1
Step 177000
Ar 1.262147e+00 0.000000e+00 0.000000e+00
1
Step 178000
Ar 1.211822e+00 0.000000e+00 0.000000e+00
1
Step 179000
Ar 1.197154e+00 0.000000e+00 0.000000e+00
1
Step 180000
Ar 6.778224e-01 0.000000e+00 0.000000e+00
1
Step 181000
Ar 6.328734e-01 0.000000e+00 0.000000e+00
1
Step 182000
Ar 6.626277e-01 0.000000e+00 0.000000e+00
1
Step 183000
Ar 6.486278e-01 0.000000e+00 0.000000e+00
1
Step 184000
Ar 7.309497e-01 0.000000e+00 0.000000e+00
1
Step 185000
Ar 8.381072e-01 0.000000e+00 0.000000e+00
1
Step 186000
Ar 8.650824e-01 0.000000e+00 0.000000e+00
1
Step 187000
Ar 7.053582e-01 0.000000e+00 0.000000e+00
1
Step 188000
Ar 6.890784e-01 0.000000e+00 0.000000e+00
1
Step 189000
Ar 5.352637e-01 0.000000e+00 0.000000e+00
1
Step 190000
Ar 7.746418e-01 0.000000e+00 0.000000e+00
1
Step 191000
Ar 7.804305e-01 0.000000e+00 0.000000e+00
1
Step 192000
Ar 8.179070e-01 0.000000e+00 0.000000e+00
1
Step 193000
Ar 7.392572e-01 0.000000e+00 0.000000e+00
1
Step 194000
Ar 5.621105e-01 0.000000e+00 0.000000e+00
1
Step 195000
Ar 6.969122e-01 0.000000e+00 0.000000e+00
1
Step 196000
Ar 6.118023e-01 0.000000e+00 0.000000e+00
1
Step 197000
Ar 5.990171e-01 0.000000e+00 0.000000e+00
1
Step 198000
Ar 5.774410e-01 0.000000e+00 0.000000e+00
1
Step 199000
Ar 5.852306e-01 0.000000e+00 0.000000e+00
1
Step 200000
Ar 7.503317e-01 0.000000e+00 0.000000e+00
1
Step 201000
Ar 1.082531e+00 0.000000e+00 0.000000e+00
1
Step 202000
Ar 1.111195e+00 0.000000e+00 0.000000e+00
1
Step 203000
Ar 1.132534e+00 0.000000e+00 0.000000e+00
1
Step 204000
Ar 1.156176e+00 0.000000e+00 0.000000e+00
1
Step 205000
Ar 1.017335e+00 0.000000e+00 0.000000e+00
1
Step 206000
Ar 1.023317e+00 0.000000e+00 0.000000e+00
1
Step 207000
Ar 1.145041e+00 0.000000e+00 0.000000e+00
1
Step 208000
Ar 1.276766e+00 0.000000e+00 0.000000e+00
1
Step 209000
Ar 1.339649e+00 0.000000e+00 0.000000e+00
1
Step 210000
Ar 1.246569e+00 0.000000e+00 0.000000e+00
1
Step 211000
Ar 1.236021e+00 0.000000e+00 0.000000e+00
1
Step 212000
Ar 9.512034e-01 0.000000e+00 0.000000e+00
1
Step 213000
Ar 4.604771e-01 0.000000e+00 0.000000e+00
1
Step 214000
Ar 4.108475e-01 0.000000e+00 0.000000e+00
1
Step 215000
Ar 4.951022e-01 0.000000e+00 0.000000e+00
1
Step 216000
Ar 4.396351e-01 0.000000e+00 0.000000e+00
1
Step 217000
Ar 5.523859e-01 0.000000e+00 0.000000e+00
1
Step 218000
Ar 5.110132e-01 0.000000e+00 0.000000e+00
1
Step 219000
Ar 4.719859e-01 0.000000e+00 0.000000e+00
1
Step 220000
Ar 4.792986e-01 0.000000e+00 0.000000e+00
1
Step 221000
Ar 6.014571e-01 0.000000e+00 0.000000e+00
1
Step 222000
Ar 6.719923e-01 0.000000e+00 0.000000e+00
1
Step 223000
Ar 6.244461e-01 0.000000e+00 0.000000e+00
1
Step 224000
Ar 6.379244e-01 0.000000e+00 0.000000e+00
1
Step 225000
Ar 7.121303e-01 0.000000e+00 0.000000e+00
1
Step 226000
Ar 1.214153e+00 0.000000e+00 0.000000e+00
1
Step 227000
Ar 1.223557e+00 0.000000e+00 0.000000e+00
1
Step 228000
Ar 1.412353e+00 0.000000e+00 0.000000e+00
1
Step 229000
Ar 1.125316e+00 0.000000e+00 0.000000e+00
1
Step 230000
Ar 1.043476e+00 0.000000e+00 0.000000e+00
1
Step 231000
Ar 1.101978e+00 0.000000e+00 0.000000e+00
1
Step 232000
Ar 1.069901e+00 0.000000e+00 0.000000e+00
1
Step 233000
Ar 1.170747e+00 0.000000e+00 0.000000e+00
1
Step 234000
Ar 8.773533e-01 0.000000e+00 0.000000e+00
1
Step 235000
Ar 8.922151e-01 0.000000e+00 0.000000e+00
1
Step 236000
Ar 7.672785e-01 0.000000e+00 0.000000e+00
1
Step 237000
Ar 7.590444e-01 0.000000e+00 0.000000e+00
1
Step 238000
Ar 6.152072e-01 0.000000e+00 0.000000e+00
1
Step 239000
Ar 4.156819e-01 0.000000e+00 0.000000e+00
1
Step 240000
Ar 5.722529e-01 0.000000e+00 0.000000e+00
1
Step 241000
Ar 4.300179e-01 0.000000e+00 0.000000e+00
1
Step 242000
Ar 6.871500e-01 0.000000e+00 0.000000e+00
1
Step 243000
Ar 4.876758e-01 0.000000e+00 0.000000e+00
1
Step 244000
Ar 4.507637e-01 0.000000e+00 0.000000e+00
1
Step 245000
Ar 5.902764e-01 0.000000e+00 0.000000e+00
1
Step 246000
Ar 5.228545e-01 0.000000e+00 0.000000e+00
1
Step 247000
Ar 5.336466e-01 0.000000e+00 0.000000e+00
1
Step 248000
Ar 5.522821e-01 0.000000e+00 0.000000e+00
1
Step 249000
Ar 8.072420e-01 0.000000e+00 0.000000e+00
1
Step 250000
Ar 9.905715e-01 0.000000e+00 0.000000e+00
1
Step 251000
Ar 9.284204e-01 0.000000e+00 0.000000e+00
1
Step 252000
Ar 9.040415e-01 0.000000e+00 0.000000e+00
1
Step 253000
Ar 9.369557e-01 0.000000e+00 0.000000e+00
1
Step 254000
Ar 1.004132e+00 0.000000e+00 0.000000e+00
1
Step 255000
Ar 8.451049e-01 0.000000e+00 0.000000e+00
1
Step 256000
Ar 8.845507e-01 0.000000e+00 0.000000e+00
1
Step 257000
Ar 8.650139e-01 0.000000e+00 0.000000e+00
1
Step 258000
Ar 9.692152e-01 0.000000e+00 0.000000e+00
1
Step 259000
Ar 1.188330e+00 0.000000e+00 0.000000e+00
1
Step 260000
Ar 1.062061e+00 0.000000e+00 0.000000e+00
1
Step 261000
Ar 1.028391e+00 0.000000e+00 0.000000e+00
1
Step 262000
Ar 8.570681e-01 0.000000e+00 0.000000e+00
1
Step 263000
Ar 7.276896e-01 0.000000e+00 0.000000e+00
1
Step 264000
Ar 9.587496e-01 0.000000e+00 0.000000e+00
1
Step 265000
Ar 9.841225e-01 0.000000e+00 0.000000e+00
1
Step 266000
Ar 6.477825e-01 0.000000e+00 0.000000e+00
1
Step 267000
Ar 7.866231e-01 0.000000e+00 0.000000e+00
1
Step 268000
Ar 8.447464e-01 0.000000e+00 0.000000e+00
1
Step 269000
Ar 7.967630e-01 0.000000e+00 0.000000e+00
1
Step 270000
Ar 4.946901e-01 0.000000e+00 0.000000e+00
1
Step 271000
Ar -1.159751e+00 0.000000e+00 0.000000e+00
1
Step 272000
Ar -1.247071e+00 0.000000e+00 0.000000e+00
1
Step 273000
Ar -1.185727e+00 0.000000e+00 0.000000e+00
1
Step 274000
Ar -1.240430e+00 0.000000e+00 0.000000e+00
1
Step 275000
Ar -9.342389e-01 0.000000e+00 0.000000e+00
1
Step 276000
Ar -5.585405e-01 0.000000e+00 0.000000e+00
1
Step 277000
Ar -8.948556e-01 0.000000e+00 0.000000e+00
1
Step 278000
Ar -8.712252e-01 0.000000e+00 0.000000e+00
1
Step 279000
Ar -8.321993e-01 0.000000e+00 0.000000e+00
1
Step 280000
Ar -6.491039e-01 0.000000e+00 0.000000e+00
1
Step 281000
Ar -7.211094e-01 0.000000e+00 0.000000e+00
1
Step 282000
Ar -6.712205e-01 0.000000e+00 0.000000e+00
1
Step 283000
Ar -1.087860e+00 0.000000e+00 0.000000e+00
1
Step 284000
Ar -1.175400e+00 0.000000e+00 0.000000e+00
1
Step 285000
Ar -1.103546e+00 0.000000e+00 0.000000e+00
1
Step 286000
Ar -1.128405e+00 0.000000e+00 0.000000e+00
1
Step 287000
Ar -8.824852e-01 0.000000e+00 0.000000e+00
1
Step 288000
Ar -9.224326e-01 0.000000e+00 0.000000e+00
1
Step 289000
Ar -9.019938e-01 0.000000e+00 0.000000e+00
1
Step 290000
Ar -9.710500e-01 0.000000e+00 0.000000e+00
1
Step 291000
Ar -1.052971e+00 0.000000e+00 0.000000e+00
1
Step 292000
Ar -1.203901e+00 0.000000e+00 0.000000e+00
1
Step 293000
Ar -1.036683e+00 0.000000e+00 0.000000e+00
1
Step 294000
Ar -1.070381e+00 0.000000e+00 0.000000e+00
1
Step 295000
Ar -9.974514e-01 0.000000e+00 0.000000e+00
1
Step 296000
Ar -1.166535e+00 0.000000e+00 0.000000e+00
1
Step 297000
Ar -1.284707e+00 0.000000e+00 0.000000e+00
1
Step 298000
Ar -1.326525e+00 0.000000e+00 0.000000e+00
1
Step 299000
Ar -1.119012e+00 0.000000e+00 0.000000e+00
1
Step 300000
Ar -9.793056e-01 0.000000e+00 0.000000e+00
1
Step 301000
Ar -6.006032e-01 0.000000e+00 0.000000e+00
1
Step 302000
Ar -5.757324e-01 0.000000e+00 0.000000e+00
1
Step 303000
Ar -8.467677e-01 0.000000e+00 0.000000e+00
1
Step 304000
Ar -9.176226e-01 0.000000e+00 0.000000e+00
1
Step 305000
Ar -9.066493e-01 0.000000e+00 0.000000e+00
1
Step 306000
Ar -1.028041e+00 0.000000e+00 0.000000e+00
1
Step 307000
Ar -1.061180e+00 0.000000e+00 0.000000e+00
1
Step 308000
Ar -1.140671e+00 0.000000e+00 0.000000e+00
1
Step 309000
Ar -1.146310e+00 0.000000e+00 0.000000e+00
1
Step 310000
Ar -9.428158e-01 0.000000e+00 0.000000e+00
1
Step 311000
Ar -9.560564e-01 0.000000e+00 0.000000e+00
1
Step 312000
Ar -1.009339e+00 0.000000e+00 0.000000e+00
1
Step 313000
Ar -1.110183e+00 0.000000e+00 0.000000e+00
1
Step 314000
Ar -9.860200e-01 0.000000e+00 0.000000e+00
1
Step 315000
Ar -9.442880e-01 0.000000e+00 0.000000e+00
1
Step 316000
Ar -1.022340e+00 0.000000e+00 0.000000e+00
1
Step 317000
Ar -9.338587e-01 0.000000e+00 0.000000e+00
1
Step 318000
Ar -7.002832e-01 0.000000e+00 0.000000e+00
1
Step 319000
Ar -5.479950e-01 0.000000e+00 0.000000e+00
1
Step 320000
Ar -4.621226e-01 0.000000e+00 0.000000e+00
1
Step 321000
Ar -6.799088e-01 0.000000e+00 0.000000e+00
1
Step 322000
Ar -8.033837e-01 0.000000e+00 0.000000e+00
1
Step 323000
Ar -7.546217e-01 0.000000e+00 0.000000e+00
1
Step 324000
Ar -8.141253e-01 0.000000e+00 0.000000e+00
1
Step 325000
Ar -7.823126e-01 0.000000e+00 0.000000e+00
1
Step 326000
Ar -8.634234e-01 0.000000e+00 0.000000e+00
1
Step 327000
Ar -7.663243e-01 0.000000e+00 0.000000e+00
1
Step 328000
Ar -7.377886e-01 0.000000e+00 0.000000e+00
1
Step 329000
Ar -7.934903e-01 0.000000e+00 0.000000e+00
1
Step 330000
Ar -6.940217e-01 0.000000e+00 0.000000e+00
1
Step 331000
Ar -5.364021e-01 0.000000e+00 0.000000e+00
1
Step 332000
Ar -8.065406e-01 0.000000e+00 0.000000e+00
1
Step 333000
Ar -7.313320e-01 0.000000e+00 0.000000e+00
1
Step 334000
Ar -7.108571e-01 0.000000e+00 0.000000e+00
1
Step 335000
Ar -7.113917e-01 0.000000e+00 0.000000e+00
1
Step 336000
Ar -7.788801e-01 0.000000e+00 0.000000e+00
1
Step 337000
Ar -7.519441e-01 0.000000e+00 0.000000e+00
1
Step 338000
Ar -7.472113e-01 0.000000e+00 0.000000e+00
1
Step 339000
Ar -6.347656e-01 0.000000e+00 0.000000e+00
1
Step 340000
Ar -6.688272e-01 0.000000e+00 0.000000e+00
1
Step 341000
Ar -5.923269e-01 0.000000e+00 0.000000e+00
1
Step 342000
Ar -4.828911e-01 0.000000e+00 0.000000e+00
1
Step 343000
Ar -5.119751e-01 0.000000e+00 0.000000e+00
1
Step 344000
Ar -4.402721e-01 0.000000e+00 0.000000e+00
1
Step 345000
Ar -1.465350e-01 0.000000e+00 0.000000e+00
1
Step 346000
Ar 2.799118e-01 0.000000e+00 0.000000e+00
1
Step 347000
Ar 2.260266e-01 0.000000e+00 0.000000e+00
1
Step 348000
Ar 1.990784e-01 0.000000e+00 0.000000e+00
1
Step 349000
Ar 2.476290e-01 0.000000e+00 0.000000e+00
1
Step 350000
Ar 3.920541e-01 0.000000e+00 0.000000e+00
1
Step 351000
Ar 3.447136e-01 0.000000e+00 0.000000e+00
1
Step 352000
Ar 3.161791e-01 0.000000e+00 0.000000e+00
1
Step 353000
Ar 3.761216e-01 0.000000e+00 0.000000e+00
1
Step 354000
Ar 2.297163e-01 0.000000e+00 0.000000e+00
1
Step 355000
Ar 3.644822e-01 0.000000e+00 0.000000e+00
1
Step 356000
Ar 3.217313e-01 0.000000e+00 0.000000e+00
1
Step 357000
Ar 3.934879e-01 0.000000e+00 0.000000e+00
1
Step 358000
Ar 4.657593e-01 0.000000e+00 0.000000e+00
1
Step 359000
Ar 4.322995e-01 0.000000e+00 0.000000e+00
1
Step 360000
Ar 4.032982e-01 0.000000e+00 0.000000e+00
1
Step 361000
Ar 3.343675e-01 0.000000e+00 0.000000e+00
1
Step 362000
Ar 3.592839e-01 0.000000e+00 0.000000e+00
1
Step 363000
Ar 1.616149e-01 0.000000e+00 0.000000e+00
1
Step 364000
Ar 1.847131e-01 0.000000e+00 0.000000e+00
1
Step 365000
Ar 2.460532e-02 0.000000e+00 0.000000e+00
1
Step 366000
Ar 1.254643e-01 0.000000e+00 0.000000e+00
1
Step 367000
Ar 9.827791e-02 0.000000e+00 0.000000e+00
1
Step 368000
Ar 1.132735e-01 0.000000e+00 0.000000e+00
1
Step 369000
Ar -9.076499e-02 0.000000e+00 0.000000e+00
1
Step 370000
Ar -5.351114e-02 0.000000e+00 0.000000e+00
1
Step 371000
Ar -8.396041e-03 0.000000e+00 0.000000e+00
1
Step 372000
Ar -2.688150e-02 0.000000e+00 0.000000e+00
1
Step 373000
Ar -7.152352e-02 0.000000e+00 0.000000e+00
1
Step 374000
Ar 1.547955e-02 0.000000e+00 0.000000e+00
1
Step 375000
Ar -3.491170e-01 0.000000e+00 0.000000e+00
1
Step 376000
Ar -2.835372e-01 0.000000e+00 0.000000e+00
1
Step 377000
Ar -3.191486e-01 0.000000e+00 0.000000e+00
1
Step 378000
Ar -5.833213e-01 0.000000e+00 0.000000e+00
1
Step 379000
Ar -4.501396e-01 0.000000e+00 0.000000e+00
1
Step 380000
Ar -4.969828e-01 0.000000e+00 0.000000e+00
1
Step 381000
Ar -5.283367e-01 0.000000e+00 0.000000e+00
1
Step 382000
Ar -4.712648e-01 0.000000e+00 0.000000e+00
1
Step 383000
Ar -6.303586e-01 0.000000e+00 0.000000e+00
1
Step 384000
Ar -6.185901e-01 0.000000e+00 0.000000e+00
1
Step 385000
Ar -6.119780e-01 0.000000e+00 0.000000e+00
1
Step 386000
Ar -5.674212e-01 0.000000e+00 0.000000e+00
1
Step 387000
Ar -5.065342e-01 0.000000e+00 0.000000e+00
1
Step 388000
Ar -2.458597e-01 0.000000e+00 0.000000e+00
1
Step 389000
Ar -1.274854e-01 0.000000e+00 0.000000e+00
1
Step 390000
Ar -4.327669e-02 0.000000e+00 0.000000e+00
1
Step 391000
Ar 2.719305e-03 0.000000e+00 0.000000e+00
1
Step 392000
Ar 1.424415e-01 0.000000e+00 0.000000e+00
1
Step 393000
Ar 4.594107e-02 0.000000e+00 0.000000e+00
1
Step 394000
Ar 1.330808e-01 0.000000e+00 0.000000e+00
1
Step 395000
Ar 7.034661e-02 0.000000e+00 0.000000e+00
1
Step 396000
Ar 9.006067e-02 0.000000e+00 0.000000e+00
1
Step 397000
Ar 6.134968e-02 0.000000e+00 0.000000e+00
1
Step 398000
Ar -2.025762e-01 0.000000e+00 0.000000e+00
1
Step 399000
Ar -3.262381e-01 0.000000e+00 0.000000e+00
1
Step 400000
Ar -1.677881e-01 0.000000e+00 0.000000e+00
1
Step 401000
Ar -1.182759e-01 0.000000e+00 0.000000e+00
1
Step 402000
Ar -7.665771e-02 0.000000e+00 0.000000e+00
1
Step 403000
Ar -9.783532e-02 0.000000e+00 0.000000e+00
1
Step 404000
Ar -3.067939e-01 0.000000e+00 0.000000e+00
1
Step 405000
Ar -2.370922e-01 0.000000e+00 0.000000e+00
1
Step 406000
Ar -2.144229e-01 0.000000e+00 0.000000e+00
1
Step 407000
Ar -2.203048e-01 0.000000e+00 0.000000e+00
1
Step 408000
Ar -2.668394e-01 0.000000e+00 0.000000e+00
1
Step 409000
Ar -2.591516e-01 0.000000e+00 0.000000e+00
1
Step 410000
Ar -2.342169e-01 0.000000e+00 0.000000e+00
1
Step 411000
Ar -1.831782e-01 0.000000e+00 0.000000e+00
1
Step 412000
Ar -1.866106e-01 0.000000e+00 0.000000e+00
1
Step 413000
Ar -1.927211e-01 0.000000e+00 0.000000e+00
1
Step 414000
Ar -2.260682e-01 0.000000e+00 0.000000e+00
1
Step 415000
Ar -1.542075e-01 0.000000e+00 0.000000e+00
1
Step 416000
Ar -1.721596e-01 0.000000e+00 0.000000e+00
1
Step 417000
Ar -1.566447e-01 0.000000e+00 0.000000e+00
1
Step 418000
Ar -1.757070e-01 0.000000e+00 0.000000e+00
1
Step 419000
Ar -1.169475e-01 0.000000e+00 0.000000e+00
1
Step 420000
Ar -1.036143e-01 0.000000e+00 0.000000e+00
1
Step 421000
Ar -8.544231e-02 0.000000e+00 0.000000e+00
1
Step 422000
Ar -1.888423e-02 0.000000e+00 0.000000e+00
1
Step 423000
Ar 7.918043e-02 0.000000e+00 0.000000e+00
1
Step 424000
Ar 2.966924e-02 0.000000e+00 0.000000e+00
1
Step 425000
Ar 4.961419e-02 0.000000e+00 0.000000e+00
1
Step 426000
Ar 2.149896e-01 0.000000e+00 0.000000e+00
1
Step 427000
Ar 1.943053e-01 0.000000e+00 0.000000e+00
1
Step 428000
Ar 7.268611e-02 0.000000e+00 0.000000e+00
1
Step 429000
Ar -6.234141e-02 0.000000e+00 0.000000e+00
1
Step 430000
Ar -3.538803e-02 0.000000e+00 0.000000e+00
1
Step 431000
Ar -3.029067e-02 0.000000e+00 0.000000e+00
1
Step 432000
Ar -8.204615e-01 0.000000e+00 0.000000e+00
1
Step 433000
Ar -8.414204e-01 0.000000e+00 0.000000e+00
1
Step 434000
Ar -8.567024e-01 0.000000e+00 0.000000e+00
1
Step 435000
Ar -8.588831e-01 0.000000e+00 0.000000e+00
1
Step 436000
Ar -8.287566e-01 0.000000e+00 0.000000e+00
1
Step 437000
Ar -7.893186e-01 0.000000e+00 0.000000e+00
1
Step 438000
Ar -1.091738e+00 0.000000e+00 0.000000e+00
1
Step 439000
Ar -1.217644e+00 0.000000e+00 0.000000e+00
1
Step 440000
Ar -1.230850e+00 0.000000e+00 0.000000e+00
1
Step 441000
Ar -1.220839e+00 0.000000e+00 0.000000e+00
1
Step 442000
Ar -1.313220e+00 0.000000e+00 0.000000e+00
1
Step 443000
Ar -1.342870e+00 0.000000e+00 0.000000e+00
1
Step 444000
Ar -1.267308e+00 0.000000e+00 0.000000e+00
1
Step 445000
Ar -1.273790e+00 0.000000e+00 0.000000e+00
1
Step 446000
Ar -1.292686e+00 0.000000e+00 0.000000e+00
1
Step 447000
Ar -1.370812e+00 0.000000e+00 0.000000e+00
1
Step 448000
Ar -1.400994e+00 0.000000e+00 0.000000e+00
1
Step 449000
Ar -1.418268e+00 0.000000e+00 0.000000e+00
1
Step 450000
Ar -1.114506e+00 0.000000e+00 0.000000e+00
1
Step 451000
Ar -9.654525e-01 0.000000e+00 0.000000e+00
1
Step 452000
Ar -1.076557e+00 0.000000e+00 0.000000e+00
1
Step 453000
Ar -9.912830e-01 0.000000e+00 0.000000e+00
1
Step 454000
Ar -1.007029e+00 0.000000e+00 0.000000e+00
1
Step 455000
Ar -1.043573e+00 0.000000e+00 0.000000e+00
1
Step 456000
Ar -1.065595e+00 0.000000e+00 0.000000e+00
1
Step 457000
Ar -1.017586e+00 0.000000e+00 0.000000e+00
1
Step 458000
Ar -9.598606e-01 0.000000e+00 0.000000e+00
1
Step 459000
Ar -1.098067e+00 0.000000e+00 0.000000e+00
1
Step 460000
Ar -1.049271e+00 0.000000e+00 0.000000e+00
1
Step 461000
Ar -9.556632e-01 0.000000e+00 0.000000e+00
1
Step 462000
Ar -8.778047e-01 0.000000e+00 0.000000e+00
1
Step 463000
Ar -8.907691e-01 0.000000e+00 0.000000e+00
1
Step 464000
Ar -8.151114e-01 0.000000e+00 0.000000e+00
1
Step 465000
Ar -9.099806e-01 0.000000e+00 0.000000e+00
1
Step 466000
Ar -9.246966e-01 0.000000e+00 0.000000e+00
1
Step 467000
Ar -8.555989e-01 0.000000e+00 0.000000e+00
1
Step 468000
Ar -6.832345e-01 0.000000e+00 0.000000e+00
1
Step 469000
Ar -7.235934e-01 0.000000e+00 0.000000e+00
1
Step 470000
Ar -7.361743e-01 0.000000e+00 0.000000e+00
1
Step 471000
Ar -7.695226e-01 0.000000e+00 0.000000e+00
1
Step 472000
Ar -7.964598e-01 0.000000e+00 0.000000e+00
1
Step 473000
Ar -7.614654e-01 0.000000e+00 0.000000e+00
1
Step 474000
Ar -4.209763e-01 0.000000e+00 0.000000e+00
1
Step 475000
Ar -3.810599e-01 0.000000e+00 0.000000e+00
1
Step 476000
Ar -3.706459e-01 0.000000e+00 0.000000e+00
1
Step 477000
Ar -3.376849e-01 0.000000e+00 0.000000e+00
1
Step 478000
Ar -4.020766e-01 0.000000e+00 0.000000e+00
1
Step 479000
Ar -3.889387e-01 0.000000e+00 0.000000e+00
1
Step 480000
Ar -4.320861e-01 0.000000e+00 0.000000e+00
1
Step 481000
Ar -5.921621e-01 0.000000e+00 0.000000e+00
1
Step 482000
Ar -5.244127e-01 0.000000e+00 0.000000e+00
1
Step 483000
Ar -4.865409e-01 0.000000e+00 0.000000e+00
1
Step 484000
Ar -3.611651e-01 0.000000e+00 0.000000e+00
1
Step 485000
Ar -4.139597e-01 0.000000e+00 0.000000e+00
1
Step 486000
Ar -4.598443e-01 0.000000e+00 0.000000e+00
1
Step 487000
Ar -4.281868e-01 0.000000e+00 0.000000e+00
1
Step 488000
Ar -4.080899e-01 0.000000e+00 0.000000e+00
1
Step 489000
Ar -2.898012e-01 0.000000e+00 0.000000e+00
1
Step 490000
Ar -3.953976e-01 0.000000e+00 0.000000e+00
1
Step 491000
Ar -3.001849e-01 0.000000e+00 0.000000e+00
1
Step 492000
Ar -3.300505e-01 0.000000e+00 0.000000e+00
1
Step 493000
Ar -5.548723e-01 0.000000e+00 0.000000e+00
1
Step 494000
Ar -4.732571e-01 0.000000e+00 0.000000e+00
1
Step 495000
Ar -4.942549e-01 0.000000e+00 0.000000e+00
1
Step 496000
Ar -3.520393e-01 0.000000e+00 0.000000e+00
1
Step 497000
Ar -8.402163e-01 0.000000e+00 0.000000e+00
1
Step 498000
Ar -8.505895e-01 0.000000e+00 0.000000e+00
1
Step 499000
Ar -6.578817e-01 0.000000e+00 0.000000e+00
1
Step 500000
Ar -6.410519e-01 0.000000e+00 0.000000e+00
1
Step 501000
Ar -6.042379e-01 0.000000e+00 0.000000e+00
1
Step 502000
Ar -6.594984e-01 0.000000e+00 0.000000e+00
1
Step 503000
Ar -6.474139e-01 0.000000e+00 0.000000e+00
1
Step 504000
Ar -6.980381e-01 0.000000e+00 0.000000e+00
1
Step 505000
Ar -5.696699e-01 0.000000e+00 0.000000e+00
1
Step 506000
Ar -5.180721e-01 0.000000e+00 0.000000e+00
1
Step 507000
Ar -6.826059e-01 0.000000e+00 0.000000e+00
1
Step 508000
Ar -7.678660e-01 0.000000e+00 0.000000e+00
1
Step 509000
Ar -7.450605e-01 0.000000e+00 0.000000e+00
1
Step 510000
Ar -6.870206e-01 0.000000e+00 0.000000e+00
1
Step 511000
Ar -7.108887e-01 0.000000e+00 0.000000e+00
1
Step 512000
Ar -7.262082e-01 0.000000e+00 0.000000e+00
1
Step 513000
Ar -7.812761e-01 0.000000e+00 0.000000e+00
1
Step 514000
Ar -8.234042e-01 0.000000e+00 0.000000e+00
1
Step 515000
Ar -8.343238e-01 0.000000e+00 0.000000e+00
1
Step 516000
Ar -8.039012e-01 0.000000e+00 0.000000e+00
1
Step 517000
Ar -8.220370e-01 0.000000e+00 0.000000e+00
1
Step 518000
Ar -3.115161e-01 0.000000e+00 0.000000e+00
1
Step 519000
Ar -2.720724e-01 0.000000e+00 0.000000e+00
1
Step 520000
Ar -2.509345e-01 0.000000e+00 0.000000e+00
1
Step 521000
Ar -3.667872e-01 0.000000e+00 0.000000e+00
1
Step 522000
Ar -3.393982e-01 0.000000e+00 0.000000e+00
1
Step 523000
Ar -6.233343e-01 0.000000e+00 0.000000e+00
1
Step 524000
Ar -5.357914e-01 0.000000e+00 0.000000e+00
1
Step 525000
Ar -6.157943e-01 0.000000e+00 0.000000e+00
1
Step 526000
Ar -6.635172e-01 0.000000e+00 0.000000e+00
1
Step 527000
Ar -4.456209e-01 0.000000e+00 0.000000e+00
1
Step 528000
Ar -4.966741e-01 0.000000e+00 0.000000e+00
1
Step 529000
Ar -5.809303e-01 0.000000e+00 0.000000e+00
1
Step 530000
Ar -5.152573e-01 0.000000e+00 0.000000e+00
1
Step 531000
Ar -9.031676e-01 0.000000e+00 0.000000e+00
1
Step 532000
Ar -8.886564e-01 0.000000e+00 0.000000e+00
1
Step 533000
Ar -8.762782e-01 0.000000e+00 0.000000e+00
1
Step 534000
Ar -8.746252e-01 0.000000e+00 0.000000e+00
1
Step 535000
Ar -1.353884e+00 0.000000e+00 0.000000e+00
1
Step 536000
Ar -1.337039e+00 0.000000e+00 0.000000e+00
1
Step 537000
Ar -1.251654e+00 0.000000e+00 0.000000e+00
1
Step 538000
Ar -1.257071e+00 0.000000e+00 0.000000e+00
1
Step 539000
Ar -1.303010e+00 0.000000e+00 0.000000e+00
1
Step 540000
Ar -1.135513e+00 0.000000e+00 0.000000e+00
1
Step 541000
Ar -1.004211e+00 0.000000e+00 0.000000e+00
1
Step 542000
Ar -9.696961e-01 0.000000e+00 0.000000e+00
1
Step 543000
Ar -1.174733e+00 0.000000e+00 0.000000e+00
1
Step 544000
Ar -1.152741e+00 0.000000e+00 0.000000e+00
1
Step 545000
Ar -1.166651e+00 0.000000e+00 0.000000e+00
1
Step 546000
Ar -1.079979e+00 0.000000e+00 0.000000e+00
1
Step 547000
Ar -1.057175e+00 0.000000e+00 0.000000e+00
1
Step 548000
Ar -1.034981e+00 0.000000e+00 0.000000e+00
1
Step 549000
Ar -1.148191e+00 0.000000e+00 0.000000e+00
1
Step 550000
Ar -1.200659e+00 0.000000e+00 0.000000e+00
1
Step 551000
Ar -1.192532e+00 0.000000e+00 0.000000e+00
1
Step 552000
Ar -1.233708e+00 0.000000e+00 0.000000e+00
1
Step 553000
Ar -1.224941e+00 0.000000e+00 0.000000e+00
1
Step 554000
Ar -1.279301e+00 0.000000e+00 0.000000e+00
1
Step 555000
Ar -1.267432e+00 0.000000e+00 0.000000e+00
1
Step 556000
Ar -1.105018e+00 0.000000e+00 0.000000e+00
1
Step 557000
Ar -9.925473e-01 0.000000e+00 0.000000e+00
1
Step 558000
Ar -1.037604e+00 0.000000e+00 0.000000e+00
1
Step 559000
Ar -1.091577e+00 0.000000e+00 0.000000e+00
1
Step 560000
Ar -1.122246e+00 0.000000e+00 0.000000e+00
1
Step 561000
Ar -1.128594e+00 0.000000e+00 0.000000e+00
1
Step 562000
Ar -1.323607e+00 0.000000e+00 0.000000e+00
1
Step 563000
Ar -1.289185e+00 0.000000e+00 0.000000e+00
1
Step 564000
Ar -1.391131e+00 0.000000e+00 0.000000e+00
1
Step 565000
Ar -1.376141e+00 0.000000e+00 0.000000e+00
1
Step 566000
Ar -1.438467e+00 0.000000e+00 0.000000e+00
1
Step 567000
Ar -1.384895e+00 0.000000e+00 0.000000e+00
1
Step 568000
Ar -1.362892e+00 0.000000e+00 0.000000e+00
1
Step 569000
Ar -1.312286e+00 0.000000e+00 0.000000e+00
1
Step 570000
Ar -9.820844e-01 0.000000e+00 0.000000e+00
1
Step 571000
Ar -1.016785e+00 0.000000e+00 0.000000e+00
1
Step 572000
Ar -9.297286e-01 0.000000e+00 0.000000e+00
1
Step 573000
Ar -9.191278e-01 0.000000e+00 0.000000e+00
1
Step 574000
Ar -8.976498e-01 0.000000e+00 0.000000e+00
1
Step 575000
Ar -1.207866e+00 0.000000e+00 0.000000e+00
1
Step 576000
Ar -1.082326e+00 0.000000e+00 0.000000e+00
1
Step 577000
Ar -1.058512e+00 0.000000e+00 0.000000e+00
1
Step 578000
Ar -1.447707e+00 0.000000e+00 0.000000e+00
1
Step 579000
Ar -1.476946e+00 0.000000e+00 0.000000e+00
1
Step 580000
Ar -1.407814e+00 0.000000e+00 0.000000e+00
1
Step 581000
Ar -1.191884e+00 0.000000e+00 0.000000e+00
1
Step 582000
Ar -1.209716e+00 0.000000e+00 0.000000e+00
1
Step 583000
Ar -1.256075e+00 0.000000e+00 0.000000e+00
1
Step 584000
Ar -1.307790e+00 0.000000e+00 0.000000e+00
1
Step 585000
Ar -1.293280e+00 0.000000e+00 0.000000e+00
1
Step 586000
Ar -1.429274e+00 0.000000e+00 0.000000e+00
1
Step 587000
Ar -1.343979e+00 0.000000e+00 0.000000e+00
1
Step 588000
Ar -1.495998e+00 0.000000e+00 0.000000e+00
1
Step 589000
Ar -1.464257e+00 0.000000e+00 0.000000e+00
1
Step 590000
Ar -1.355293e+00 0.000000e+00 0.000000e+00
1
Step 591000
Ar -1.417198e+00 0.000000e+00 0.000000e+00
1
Step 592000
Ar -1.334448e+00 0.000000e+00 0.000000e+00
1
Step 593000
Ar -1.319914e+00 0.000000e+00 0.000000e+00
1
Step 594000
Ar -1.158851e+00 0.000000e+00 0.000000e+00
1
Step 595000
Ar -1.281279e+00 0.000000e+00 0.000000e+00
1
Step 596000
Ar -1.382872e+00 0.000000e+00 0.000000e+00
1
Step 597000
Ar -1.367601e+00 0.000000e+00 0.000000e+00
1
Step 598000
Ar -1.360570e+00 0.000000e+00 0.000000e+00
1
Step 599000
Ar -8.646157e-01 0.000000e+00 0.000000e+00
1
Step 600000
Ar -8.664673e-01 0.000000e+00 0.000000e+00
1
Step 601000
Ar -1.026548e+00 0.000000e+00 0.000000e+00
1
Step 602000
Ar -9.514668e-01 0.000000e+00 0.000000e+00
1
Step 603000
Ar -9.429783e-01 0.000000e+00 0.000000e+00
1
Step 604000
Ar -9.728952e-01 0.000000e+00 0.000000e+00
1
Step 605000
Ar -9.168290e-01 0.000000e+00 0.000000e+00
1
Step 606000
Ar -8.851790e-01 0.000000e+00 0.000000e+00
1
Step 607000
Ar -9.118322e-01 0.000000e+00 0.000000e+00
1
Step 608000
Ar -1.005932e+00 0.000000e+00 0.000000e+00
1
Step 609000
Ar -1.181335e+00 0.000000e+00 0.000000e+00
1
Step 610000
Ar -1.132659e+00 0.000000e+00 0.000000e+00
1
Step 611000
Ar -1.073256e+00 0.000000e+00 0.000000e+00
1
Step 612000
Ar -1.103793e+00 0.000000e+00 0.000000e+00
1
Step 613000
Ar -9.915654e-01 0.000000e+00 0.000000e+00
1
Step 614000
Ar -1.240453e+00 0.000000e+00 0.000000e+00
1
Step 615000
Ar -9.814169e-01 0.000000e+00 0.000000e+00
1
Step 616000
Ar -9.376614e-01 0.000000e+00 0.000000e+00
1
Step 617000
Ar -9.576453e-01 0.000000e+00 0.000000e+00
1
Step 618000
Ar -1.019978e+00 0.000000e+00 0.000000e+00
1
Step 619000
Ar -1.050650e+00 0.000000e+00 0.000000e+00
1
Step 620000
Ar -1.318303e+00 0.000000e+00 0.000000e+00
1
Step 621000
Ar -1.487684e+00 0.000000e+00 0.000000e+00
1
Step 622000
Ar -1.457129e+00 0.000000e+00 0.000000e+00
1
Step 623000
Ar -1.457239e+00 0.000000e+00 0.000000e+00
1
Step 624000
Ar -1.393607e+00 0.000000e+00 0.000000e+00
1
Step 625000
Ar -1.422003e+00 0.000000e+00 0.000000e+00
1
Step 626000
Ar -1.348317e+00 0.000000e+00 0.000000e+00
1
Step 627000
Ar -1.330966e+00 0.000000e+00 0.000000e+00
1
Step 628000
Ar -1.407528e+00 0.000000e+00 0.000000e+00
1
Step 629000
Ar -1.443708e+00 0.000000e+00 0.000000e+00
1
Step 630000
Ar -1.259485e+00 0.000000e+00 0.000000e+00
1
Step 631000
Ar -1.117821e+00 0.000000e+00 0.000000e+00
1
Step 632000
Ar -1.198980e+00 0.000000e+00 0.000000e+00
1
Step 633000
Ar -1.157065e+00 0.000000e+00 0.000000e+00
1
Step 634000
Ar -1.181367e+00 0.000000e+00 0.000000e+00
1
Step 635000
Ar -1.165812e+00 0.000000e+00 0.000000e+00
1
Step 636000
Ar -1.207811e+00 0.000000e+00 0.000000e+00
1
Step 637000
Ar -1.267521e+00 0.000000e+00 0.000000e+00
1
Step 638000
Ar -1.236176e+00 0.000000e+00 0.000000e+00
1
Step 639000
Ar -9.742486e-01 0.000000e+00 0.000000e+00
1
Step 640000
Ar -1.192121e+00 0.000000e+00 0.000000e+00
1
Step 641000
Ar -1.222945e+00 0.000000e+00 0.000000e+00
1
Step 642000
Ar -1.298734e+00 0.000000e+00 0.000000e+00
1
Step 643000
Ar -1.305125e+00 0.000000e+00 0.000000e+00
1
Step 644000
Ar -1.278678e+00 0.000000e+00 0.000000e+00
1
Step 645000
Ar -1.067853e+00 0.000000e+00 0.000000e+00
1
Step 646000
Ar -1.093687e+00 0.000000e+00 0.000000e+00
1
Step 647000
Ar -1.249056e+00 0.000000e+00 0.000000e+00
1
Step 648000
Ar -9.549901e-01 0.000000e+00 0.000000e+00
1
Step 649000