1
Step 120000
Ar 8.864891e-01 0.000000e+00 0.000000e+00
1
Step 121000
Ar 1.099192e+00 0.000000e+00 0.000000e+00
1
Step 122000
Ar 9.269497e-01 0.000000e+00 0.000000e+00
1
Step 123000
Ar 9.665866e-01 0.000000e+00 0.000000e+00
1
Step 124000
Ar 9.432858e-01 0.000000e+00 0.000000e+00
1
Step 125000
Ar 1.037278e+00 0.000000e+00 0.000000e+00
1
Step 126000
Ar 1.089816e+00 0.000000e+00 0.000000e+00
1
Step 127000
Ar 1.105660e+00 0.000000e+00 0.000000e+00
1
Step 128000
Ar 1.140113e+00 0.000000e+00 0.000000e+00
1
Step 129000
Ar 1.126740e+00 0.000000e+00 0.000000e+00
1
Step 130000
Ar 1.023334e+00 0.000000e+00 0.000000e+00
1
Step 131000
Ar 1.024100e+00 0.000000e+00 0.000000e+00
1
Step 132000
Ar 1.020287e+00 0.000000e+00 0.000000e+00
1
Step 133000
Ar 1.016375e+00 0.000000e+00 0.000000e+00
1
Step 134000
Ar 9.776194e-01 0.000000e+00 0.000000e+00
1
Step 135000
Ar 6.983086e-01 0.000000e+00 0.000000e+00
1
Step 136000
Ar 7.267109e-01 0.000000e+00 0.000000e+00
1
Step 137000
Ar 6.951576e-01 0.000000e+00 0.000000e+00
1
Step 138000
Ar 5.902993e-01 0.000000e+00 0.000000e+00
1
Step 139000
Ar 1.011401e+00 0.000000e+00 0.000000e+00
1
Step 140000
Ar 1.114262e+00 0.000000e+00 0.000000e+00
1
Step 141000
Ar 1.092275e+00 0.000000e+00 0.000000e+00
1
Step 142000
Ar 1.179116e+00 0.000000e+00 0.000000e+00
1
Step 143000
Ar 1.239509e+00 0.000000e+00 0.000000e+00
1
Step 144000
Ar 8.025684e-01 0.000000e+00 0.000000e+00
1
Step 145000
Ar 1.159941e+00 0.000000e+00 0.000000e+00
1
Step 146000
Ar 1.111169e+00 0.000000e+00 0.000000e+00
1
Step 147000
Ar 1.188509e+00 0.000000e+00 0.000000e+00
1
Step 148000
Ar 1.224909e+00 0.000000e+00 0.000000e+00
1
Step 149000
Ar 9.733930e-01 0.000000e+00 0.000000e+00
1
Step 150000
Ar 9.597368e-01 0.000000e+00 0.000000e+00
1
Step 151000
Ar 9.873528e-01 0.000000e+00 0.000000e+00
1
Step 152000
Ar 9.568121e-01 0.000000e+00 0.000000e+00
1
Step 153000
Ar 1.063066e+00 0.000000e+00 0.000000e+00
1
Step 154000
Ar 1.060229e+00 0.000000e+00 0.000000e+00
1
Step 155000
Ar 8.876939e-01 0.000000e+00 0.000000e+00
1
Step 156000
Ar 1.086473e+00 0.000000e+00 0.000000e+00
1
Step 157000
Ar 1.083976e+00 0.000000e+00 0.000000e+00
1
Step 158000
Ar 1.062966e+00 0.000000e+00 0.000000e+00
1
Step 159000
Ar 1.057756e+00 0.000000e+00 0.000000e+00
1
Step 160000
Ar 9.621335e-01 0.000000e+00 0.000000e+00
1
Step 161000
Ar 9.792093e-01 0.000000e+00 0.000000e+00
1
Step 162000
Ar 8.481834e-01 0.000000e+00 0.000000e+00
1
Step 163000
Ar 8.944820e-01 0.000000e+00 0.000000e+00
1
Step 164000
Ar 8.397011e-01 0.000000e+00 0.000000e+00
1
Step 165000
Ar 8.900431e-01 0.000000e+00 0.000000e+00
1
Step 166000
Ar 8.741983e-01 0.000000e+00 0.000000e+00
1
Step 167000
Ar 9.293815e-01 0.000000e+00 0.000000e+00
1
Step 168000
Ar 9.130076e-01 0.000000e+00 0.000000e+00
1
Step 169000
Ar 9.033251e-01 0.000000e+00 0.000000e+00
1
Step 170000
Ar 8.855382e-01 0.000000e+00 0.000000e+00
1
Step 171000
Ar 9.267276e-01 0.000000e+00 0.000000e+00
1
Step 172000
Ar 8.647124e-01 0.000000e+00 0.000000e+00
1
Step 173000
Ar 8.956218e-01 0.000000e+00 0.000000e+00
1
Step 174000
Ar 7.966936e-01 0.000000e+00 0.000000e+00
1
Step 175000
Ar 8.500826e-01 0.000000e+00 0.000000e+00
1
Step 176000
Ar 8.020452e-01 0.000000e+00 0.000000e+00
1
Step 177000
Ar 8.230357e-01 0.000000e+00 0.000000e+00
1
Step 178000
Ar 8.281781e-01 0.000000e+00 0.000000e+00
1
Step 179000
Ar 6.642422e-01 0.000000e+00 0.000000e+00
1
Step 180000
Ar 7.033045e-01 0.000000e+00 0.000000e+00
1
Step 181000
Ar 5.488911e-01 0.000000e+00 0.000000e+00
1
Step 182000
Ar 6.690366e-01 0.000000e+00 0.000000e+00
1
Step 183000
Ar 7.180893e-01 0.000000e+00 0.000000e+00
1
Step 184000
Ar 6.915031e-01 0.000000e+00 0.000000e+00
1
Step 185000
Ar 9.344686e-01 0.000000e+00 0.000000e+00
1
Step 186000
Ar 9.364325e-01 0.000000e+00 0.000000e+00
1
Step 187000
Ar 9.869051e-01 0.000000e+00 0.000000e+00
1
Step 188000
Ar 9.977344e-01 0.000000e+00 0.000000e+00
1
Step 189000
Ar 9.870527e-01 0.000000e+00 0.000000e+00
1
Step 190000
Ar 9.908096e-01 0.000000e+00 0.000000e+00
1
Step 191000
Ar 9.877590e-01 0.000000e+00 0.000000e+00
1
Step 192000
Ar 9.914660e-01 0.000000e+00 0.000000e+00
1
Step 193000
Ar 9.847249e-01 0.000000e+00 0.000000e+00
1
Step 194000
Ar 1.048761e+00 0.000000e+00 0.000000e+00
1
Step 195000
Ar 8.082844e-01 0.000000e+00 0.000000e+00
1
Step 196000
Ar 7.870272e-01 0.000000e+00 0.000000e+00
1
Step 197000
Ar 8.052613e-01 0.000000e+00 0.000000e+00
1
Step 198000
Ar 8.144184e-01 0.000000e+00 0.000000e+00
1
Step 199000
Ar 8.061998e-01 0.000000e+00 0.000000e+00
1
Step 200000
Ar 8.267208e-01 0.000000e+00 0.000000e+00
1
Step 201000
Ar 9.662873e-01 0.000000e+00 0.000000e+00
1
Step 202000
Ar 9.617826e-01 0.000000e+00 0.000000e+00
1
Step 203000
Ar 1.052749e+00 0.000000e+00 0.000000e+00
1
Step 204000
Ar 1.050443e+00 0.000000e+00 0.000000e+00
1
Step 205000
Ar 1.061068e+00 0.000000e+00 0.000000e+00
1
Step 206000
Ar 1.045533e+00 0.000000e+00 0.000000e+00
1
Step 207000
Ar 9.297842e-01 0.000000e+00 0.000000e+00
1
Step 208000
Ar 9.287370e-01 0.000000e+00 0.000000e+00
1
Step 209000
Ar 9.281589e-01 0.000000e+00 0.000000e+00
1
Step 210000
Ar 9.313958e-01 0.000000e+00 0.000000e+00
1
Step 211000
Ar 8.930187e-01 0.000000e+00 0.000000e+00
1
Step 212000
Ar 8.864913e-01 0.000000e+00 0.000000e+00
1
Step 213000
Ar 8.799395e-01 0.000000e+00 0.000000e+00
1
Step 214000
Ar 8.882883e-01 0.000000e+00 0.000000e+00
1
Step 215000
Ar 8.765384e-01 0.000000e+00 0.000000e+00
1
Step 216000
Ar 8.832912e-01 0.000000e+00 0.000000e+00
1
Step 217000
Ar 8.472632e-01 0.000000e+00 0.000000e+00
1
Step 218000
Ar 6.682712e-01 0.000000e+00 0.000000e+00
1
Step 219000
Ar 6.877285e-01 0.000000e+00 0.000000e+00
1
Step 220000
Ar 6.927933e-01 0.000000e+00 0.000000e+00
1
Step 221000
Ar 7.051834e-01 0.000000e+00 0.000000e+00
1
Step 222000
Ar 7.952973e-01 0.000000e+00 0.000000e+00
1
Step 223000
Ar 8.085282e-01 0.000000e+00 0.000000e+00
1
Step 224000
Ar 8.118160e-01 0.000000e+00 0.000000e+00
1
Step 225000
Ar 8.050946e-01 0.000000e+00 0.000000e+00
1
Step 226000
Ar 8.089947e-01 0.000000e+00 0.000000e+00
1
Step 227000
Ar 7.968355e-01 0.000000e+00 0.000000e+00
1
Step 228000
Ar 7.969689e-01 0.000000e+00 0.000000e+00
1
Step 229000
Ar 9.815355e-01 0.000000e+00 0.000000e+00
1
Step 230000
Ar 3.306820e-01 0.000000e+00 0.000000e+00
1
Step 231000
Ar -5.942013e-01 0.000000e+00 0.000000e+00
1
Step 232000
Ar -1.040183e+00 0.000000e+00 0.000000e+00
1
Step 233000
Ar -9.223657e-01 0.000000e+00 0.000000e+00
1
Step 234000
Ar -1.039265e+00 0.000000e+00 0.000000e+00
1
Step 235000
Ar -9.716082e-01 0.000000e+00 0.000000e+00
1
Step 236000
Ar -1.072122e+00 0.000000e+00 0.000000e+00
1
Step 237000
Ar -9.741583e-01 0.000000e+00 0.000000e+00
1
Step 238000
Ar -9.519542e-01 0.000000e+00 0.000000e+00
1
Step 239000
Ar -8.894381e-01 0.000000e+00 0.000000e+00
1
Step 240000
Ar -9.476379e-01 0.000000e+00 0.000000e+00
1
Step 241000
Ar -9.693609e-01 0.000000e+00 0.000000e+00
1
Step 242000
Ar -8.889071e-01 0.000000e+00 0.000000e+00
1
Step 243000
Ar -9.790658e-01 0.000000e+00 0.000000e+00
1
Step 244000
Ar -9.196382e-01 0.000000e+00 0.000000e+00
1
Step 245000
Ar -9.420284e-01 0.000000e+00 0.000000e+00
1
Step 246000
Ar -9.397954e-01 0.000000e+00 0.000000e+00
1
Step 247000
Ar -7.849596e-01 0.000000e+00 0.000000e+00
1
Step 248000
Ar -8.024648e-01 0.000000e+00 0.000000e+00
1
Step 249000
Ar -7.857949e-01 0.000000e+00 0.000000e+00
1
Step 250000
Ar -7.966373e-01 0.000000e+00 0.000000e+00
1
Step 251000
Ar -9.086841e-01 0.000000e+00 0.000000e+00
1
Step 252000
Ar -8.893188e-01 0.000000e+00 0.000000e+00
1
Step 253000
Ar -8.819413e-01 0.000000e+00 0.000000e+00
1
Step 254000
Ar -8.841783e-01 0.000000e+00 0.000000e+00
1
Step 255000
Ar -9.036815e-01 0.000000e+00 0.000000e+00
1
Step 256000
Ar -9.029327e-01 0.000000e+00 0.000000e+00
1
Step 257000
Ar -8.926595e-01 0.000000e+00 0.000000e+00
1
Step 258000
Ar -8.827387e-01 0.000000e+00 0.000000e+00
1
Step 259000
Ar -8.888940e-01 0.000000e+00 0.000000e+00
1
Step 260000
Ar -8.979283e-01 0.000000e+00 0.000000e+00
1
Step 261000
Ar -8.302915e-01 0.000000e+00 0.000000e+00
1
Step 262000
Ar -8.476598e-01 0.000000e+00 0.000000e+00
1
Step 263000
Ar -1.400972e-01 0.000000e+00 0.000000e+00
1
Step 264000
Ar 5.626338e-01 0.000000e+00 0.000000e+00
1
Step 265000
Ar 5.790721e-01 0.000000e+00 0.000000e+00
1
Step 266000
Ar 5.691866e-01 0.000000e+00 0.000000e+00
1
Step 267000
Ar 9.239860e-01 0.000000e+00 0.000000e+00
1
Step 268000
Ar 9.248043e-01 0.000000e+00 0.000000e+00
1
Step 269000
Ar 7.303659e-01 0.000000e+00 0.000000e+00
1
Step 270000
Ar 7.202652e-01 0.000000e+00 0.000000e+00
1
Step 271000
Ar 6.982013e-01 0.000000e+00 0.000000e+00
1
Step 272000
Ar 8.736976e-01 0.000000e+00 0.000000e+00
1
Step 273000
Ar 4.696435e-01 0.000000e+00 0.000000e+00
1
Step 274000
Ar 5.999959e-01 0.000000e+00 0.000000e+00
1
Step 275000
Ar 5.485599e-01 0.000000e+00 0.000000e+00
1
Step 276000
Ar -2.748882e-01 0.000000e+00 0.000000e+00
1
Step 277000
Ar -5.593218e-01 0.000000e+00 0.000000e+00
1
Step 278000
Ar -3.998586e-01 0.000000e+00 0.000000e+00
1
Step 279000
Ar -6.428163e-01 0.000000e+00 0.000000e+00
1
Step 280000
Ar -7.759521e-01 0.000000e+00 0.000000e+00
1
Step 281000
Ar -7.456082e-01 0.000000e+00 0.000000e+00
1
Step 282000
Ar -6.203772e-01 0.000000e+00 0.000000e+00
1
Step 283000
Ar -7.019980e-01 0.000000e+00 0.000000e+00
1
Step 284000
Ar -6.531108e-01 0.000000e+00 0.000000e+00
1
Step 285000
Ar -6.223370e-01 0.000000e+00 0.000000e+00
1
Step 286000
Ar -5.837161e-01 0.000000e+00 0.000000e+00
1
Step 287000
Ar -7.154946e-01 0.000000e+00 0.000000e+00
1
Step 288000
Ar -6.590642e-01 0.000000e+00 0.000000e+00
1
Step 289000
Ar -7.276975e-01 0.000000e+00 0.000000e+00
1
Step 290000
Ar -7.356309e-01 0.000000e+00 0.000000e+00
1
Step 291000
Ar -6.734670e-01 0.000000e+00 0.000000e+00
1
Step 292000
Ar -6.742844e-01 0.000000e+00 0.000000e+00
1
Step 293000
Ar -7.080936e-01 0.000000e+00 0.000000e+00
1
Step 294000
Ar -7.270154e-01 0.000000e+00 0.000000e+00
1
Step 295000
Ar -7.273420e-01 0.000000e+00 0.000000e+00
1
Step 296000
Ar -7.462024e-01 0.000000e+00 0.000000e+00
1
Step 297000
Ar -7.090419e-01 0.000000e+00 0.000000e+00
1
Step 298000
Ar -7.373765e-01 0.000000e+00 0.000000e+00
1
Step 299000
Ar -7.448277e-01 0.000000e+00 0.000000e+00
1
Step 300000
Ar -7.070585e-01 0.000000e+00 0.000000e+00
1
Step 301000
Ar -7.332460e-01 0.000000e+00 0.000000e+00
1
Step 302000
Ar -7.233562e-01 0.000000e+00 0.000000e+00
1
Step 303000
Ar -7.133042e-01 0.000000e+00 0.000000e+00
1
Step 304000
Ar -6.836125e-01 0.000000e+00 0.000000e+00
1
Step 305000
Ar -5.078120e-01 0.000000e+00 0.000000e+00
1
Step 306000
Ar -4.895700e-01 0.000000e+00 0.000000e+00
1
Step 307000
Ar -4.805106e-01 0.000000e+00 0.000000e+00
1
Step 308000
Ar -5.216402e-01 0.000000e+00 0.000000e+00
1
Step 309000
Ar -5.685027e-01 0.000000e+00 0.000000e+00
1
Step 310000
Ar -5.868621e-01 0.000000e+00 0.000000e+00
1
Step 311000
Ar -6.509247e-01 0.000000e+00 0.000000e+00
1
Step 312000
Ar -6.554678e-01 0.000000e+00 0.000000e+00
1
Step 313000
Ar -6.306762e-01 0.000000e+00 0.000000e+00
1
Step 314000
Ar -6.352801e-01 0.000000e+00 0.000000e+00
1
Step 315000
Ar -6.556910e-01 0.000000e+00 0.000000e+00
1
Step 316000
Ar -7.082250e-01 0.000000e+00 0.000000e+00
1
Step 317000
Ar -6.850276e-01 0.000000e+00 0.000000e+00
1
Step 318000
Ar -7.049192e-01 0.000000e+00 0.000000e+00
1
Step 319000
Ar -6.885125e-01 0.000000e+00 0.000000e+00
1
Step 320000
Ar -6.942388e-01 0.000000e+00 0.000000e+00
1
Step 321000
Ar -7.153467e-01 0.000000e+00 0.000000e+00
1
Step 322000
Ar -7.135785e-01 0.000000e+00 0.000000e+00
1
Step 323000
Ar -7.104030e-01 0.000000e+00 0.000000e+00
1
Step 324000
Ar -6.851580e-01 0.000000e+00 0.000000e+00
1
Step 325000
Ar -7.676536e-01 0.000000e+00 0.000000e+00
1
Step 326000
Ar -7.389432e-01 0.000000e+00 0.000000e+00
1
Step 327000
Ar -7.674852e-01 0.000000e+00 0.000000e+00
1
Step 328000
Ar -7.295245e-01 0.000000e+00 0.000000e+00
1
Step 329000
Ar -7.345581e-01 0.000000e+00 0.000000e+00
1
Step 330000
Ar -7.536708e-01 0.000000e+00 0.000000e+00
1
Step 331000
Ar -6.517962e-01 0.000000e+00 0.000000e+00
1
Step 332000
Ar -7.281307e-01 0.000000e+00 0.000000e+00
1
Step 333000
Ar -7.381459e-01 0.000000e+00 0.000000e+00
1
Step 334000
Ar -6.850215e-01 0.000000e+00 0.000000e+00
1
Step 335000
Ar -6.838518e-01 0.000000e+00 0.000000e+00
1
Step 336000
Ar -6.864439e-01 0.000000e+00 0.000000e+00
1
Step 337000
Ar -6.794102e-01 0.000000e+00 0.000000e+00
1
Step 338000
Ar -6.811341e-01 0.000000e+00 0.000000e+00
1
Step 339000
Ar -7.385407e-01 0.000000e+00 0.000000e+00
1
Step 340000
Ar -7.404152e-01 0.000000e+00 0.000000e+00
1
Step 341000
Ar -6.594294e-01 0.000000e+00 0.000000e+00
1
Step 342000
Ar -6.535260e-01 0.000000e+00 0.000000e+00
1
Step 343000
Ar -6.591833e-01 0.000000e+00 0.000000e+00
1
Step 344000
Ar -6.529177e-01 0.000000e+00 0.000000e+00
1
Step 345000
Ar -8.194014e-01 0.000000e+00 0.000000e+00
1
Step 346000
Ar -8.312541e-01 0.000000e+00 0.000000e+00
1
Step 347000
Ar -8.168559e-01 0.000000e+00 0.000000e+00
1
Step 348000
Ar -8.446513e-01 0.000000e+00 0.000000e+00
1
Step 349000
Ar -8.462484e-01 0.000000e+00 0.000000e+00
1
Step 350000
Ar -8.112006e-01 0.000000e+00 0.000000e+00
1
Step 351000
Ar -8.320558e-01 0.000000e+00 0.000000e+00
1
Step 352000
Ar -8.149822e-01 0.000000e+00 0.000000e+00
1
Step 353000
Ar -9.847577e-01 0.000000e+00 0.000000e+00
1
Step 354000
Ar -9.434762e-01 0.000000e+00 0.000000e+00
1
Step 355000
Ar -9.768071e-01 0.000000e+00 0.000000e+00
1
Step 356000
Ar -9.346864e-01 0.000000e+00 0.000000e+00
1
Step 357000
Ar -9.733580e-01 0.000000e+00 0.000000e+00
1
Step 358000
Ar -9.640582e-01 0.000000e+00 0.000000e+00
1
Step 359000
Ar -9.735000e-01 0.000000e+00 0.000000e+00
1
Step 360000
Ar -9.021329e-01 0.000000e+00 0.000000e+00
1
Step 361000
Ar -8.524169e-01 0.000000e+00 0.000000e+00
1
Step 362000
Ar -8.723692e-01 0.000000e+00 0.000000e+00
1
Step 363000
Ar -8.289911e-01 0.000000e+00 0.000000e+00
1
Step 364000
Ar -8.615564e-01 0.000000e+00 0.000000e+00
1
Step 365000
Ar -1.139261e+00 0.000000e+00 0.000000e+00
1
Step 366000
Ar -1.038069e+00 0.000000e+00 0.000000e+00
1
Step 367000
Ar -1.038326e+00 0.000000e+00 0.000000e+00
1
Step 368000
Ar -1.027227e+00 0.000000e+00 0.000000e+00
1
Step 369000
Ar -1.020714e+00 0.000000e+00 0.000000e+00
1
Step 370000
Ar -1.043943e+00 0.000000e+00 0.000000e+00
1
Step 371000
Ar -1.026537e+00 0.000000e+00 0.000000e+00
1
Step 372000
Ar -9.512597e-01 0.000000e+00 0.000000e+00
1
Step 373000
Ar -9.374995e-01 0.000000e+00 0.000000e+00
1
Step 374000
Ar -9.505413e-01 0.000000e+00 0.000000e+00
1
Step 375000
Ar -9.460661e-01 0.000000e+00 0.000000e+00
1
Step 376000
Ar -8.742438e-01 0.000000e+00 0.000000e+00
1
Step 377000
Ar -8.810249e-01 0.000000e+00 0.000000e+00
1
Step 378000
Ar -1.087485e+00 0.000000e+00 0.000000e+00
1
Step 379000
Ar -1.082928e+00 0.000000e+00 0.000000e+00
1
Step 380000
Ar -1.038624e+00 0.000000e+00 0.000000e+00
1
Step 381000
Ar -1.025022e+00 0.000000e+00 0.000000e+00
1
Step 382000
Ar -1.025965e+00 0.000000e+00 0.000000e+00
1
Step 383000
Ar -1.038866e+00 0.000000e+00 0.000000e+00
1
Step 384000
Ar -1.041152e+00 0.000000e+00 0.000000e+00
1
Step 385000
Ar -1.034780e+00 0.000000e+00 0.000000e+00
1
Step 386000
Ar -1.037016e+00 0.000000e+00 0.000000e+00
1
Step 387000
Ar -1.026591e+00 0.000000e+00 0.000000e+00
1
Step 388000
Ar -1.022429e+00 0.000000e+00 0.000000e+00
1
Step 389000
Ar -1.023786e+00 0.000000e+00 0.000000e+00
1
Step 390000
Ar -1.083969e+00 0.000000e+00 0.000000e+00
1
Step 391000
Ar -1.075119e+00 0.000000e+00 0.000000e+00
1
Step 392000
Ar -1.067863e+00 0.000000e+00 0.000000e+00
1
Step 393000
Ar -9.300224e-01 0.000000e+00 0.000000e+00
1
Step 394000
Ar -9.530648e-01 0.000000e+00 0.000000e+00
1
Step 395000
Ar -9.373549e-01 0.000000e+00 0.000000e+00
1
Step 396000
Ar -9.607171e-01 0.000000e+00 0.000000e+00
1
Step 397000
Ar -9.766274e-01 0.000000e+00 0.000000e+00
1
Step 398000
Ar -9.469642e-01 0.000000e+00 0.000000e+00
1
Step 399000
Ar -9.028668e-01 0.000000e+00 0.000000e+00
1
Step 400000
Ar -9.008482e-01 0.000000e+00 0.000000e+00
1
Step 401000
Ar -9.081573e-01 0.000000e+00 0.000000e+00
1
Step 402000
Ar -9.029766e-01 0.000000e+00 0.000000e+00
1
Step 403000
Ar -9.030989e-01 0.000000e+00 0.000000e+00
1
Step 404000
Ar -9.012507e-01 0.000000e+00 0.000000e+00
1
Step 405000
Ar -9.735431e-01 0.000000e+00 0.000000e+00
1
Step 406000
Ar -9.771970e-01 0.000000e+00 0.000000e+00
1
Step 407000
Ar -9.020658e-01 0.000000e+00 0.000000e+00
1
Step 408000
Ar -9.042375e-01 0.000000e+00 0.000000e+00
1
Step 409000
Ar -8.987509e-01 0.000000e+00 0.000000e+00
1
Step 410000
Ar -1.007719e+00 0.000000e+00 0.000000e+00
1
Step 411000
Ar -1.067194e+00 0.000000e+00 0.000000e+00
1
Step 412000
Ar -1.082206e+00 0.000000e+00 0.000000e+00
1
Step 413000
Ar -8.727706e-01 0.000000e+00 0.000000e+00
1
Step 414000
Ar -8.143786e-01 0.000000e+00 0.000000e+00
1
Step 415000
Ar -8.092435e-01 0.000000e+00 0.000000e+00
1
Step 416000
Ar -8.158052e-01 0.000000e+00 0.000000e+00
1
Step 417000
Ar -8.055729e-01 0.000000e+00 0.000000e+00
1
Step 418000
Ar -8.085257e-01 0.000000e+00 0.000000e+00
1
Step 419000
Ar -8.010218e-01 0.000000e+00 0.000000e+00
1
Step 420000
Ar -8.042194e-01 0.000000e+00 0.000000e+00
1
Step 421000
Ar -8.081520e-01 0.000000e+00 0.000000e+00
1
Step 422000
Ar -8.177869e-01 0.000000e+00 0.000000e+00
1
Step 423000
Ar -8.014038e-01 0.000000e+00 0.000000e+00
1
Step 424000
Ar -1.206283e+00 0.000000e+00 0.000000e+00
1
Step 425000
Ar -1.111444e+00 0.000000e+00 0.000000e+00
1
Step 426000
Ar -1.291880e+00 0.000000e+00 0.000000e+00
1
Step 427000
Ar -1.173917e+00 0.000000e+00 0.000000e+00
1
Step 428000
Ar -1.164401e+00 0.000000e+00 0.000000e+00
1
Step 429000
Ar -1.114050e+00 0.000000e+00 0.000000e+00
1
Step 430000
Ar -1.123306e+00 0.000000e+00 0.000000e+00
1
Step 431000
Ar -1.169021e+00 0.000000e+00 0.000000e+00
1
Step 432000
Ar -1.158799e+00 0.000000e+00 0.000000e+00
1
Step 433000
Ar -1.166298e+00 0.000000e+00 0.000000e+00
1
Step 434000
Ar -1.166207e+00 0.000000e+00 0.000000e+00
1
Step 435000
Ar -1.154047e+00 0.000000e+00 0.000000e+00
1
Step 436000
Ar -1.170174e+00 0.000000e+00 0.000000e+00
1
Step 437000
Ar -1.141954e+00 0.000000e+00 0.000000e+00
1
Step 438000
Ar -1.138499e+00 0.000000e+00 0.000000e+00
1
Step 439000
Ar -1.122339e+00 0.000000e+00 0.000000e+00
1
Step 440000
Ar -1.214079e+00 0.000000e+00 0.000000e+00
1
Step 441000
Ar -1.184936e+00 0.000000e+00 0.000000e+00
1
Step 442000
Ar -1.208628e+00 0.000000e+00 0.000000e+00
1
Step 443000
Ar -1.213282e+00 0.000000e+00 0.000000e+00
1
Step 444000
Ar -1.185095e+00 0.000000e+00 0.000000e+00
1
Step 445000
Ar -1.214062e+00 0.000000e+00 0.000000e+00
1
Step 446000
Ar -1.283240e+00 0.000000e+00 0.000000e+00
1
Step 447000
Ar -1.258885e+00 0.000000e+00 0.000000e+00
1
Step 448000
Ar -1.265164e+00 0.000000e+00 0.000000e+00
1
Step 449000
Ar -1.277929e+00 0.000000e+00 0.000000e+00
1
Step 450000
Ar -1.241278e+00 0.000000e+00 0.000000e+00
1
Step 451000
Ar -1.300584e+00 0.000000e+00 0.000000e+00
1
Step 452000
Ar -1.272218e+00 0.000000e+00 0.000000e+00
1
Step 453000
Ar -1.250195e+00 0.000000e+00 0.000000e+00
1
Step 454000
Ar -1.257536e+00 0.000000e+00 0.000000e+00
1
Step 455000
Ar -1.289723e+00 0.000000e+00 0.000000e+00
1
Step 456000
Ar -1.286209e+00 0.000000e+00 0.000000e+00
1
Step 457000
Ar -1.332724e+00 0.000000e+00 0.000000e+00
1
Step 458000
Ar -1.280106e+00 0.000000e+00 0.000000e+00
1
Step 459000
Ar -1.282506e+00 0.000000e+00 0.000000e+00
1
Step 460000
Ar -1.260079e+00 0.000000e+00 0.000000e+00
1
Step 461000
Ar -1.272314e+00 0.000000e+00 0.000000e+00
1
Step 462000
Ar -1.285025e+00 0.000000e+00 0.000000e+00
1
Step 463000
Ar -1.214360e+00 0.000000e+00 0.000000e+00
1
Step 464000
Ar -1.125323e+00 0.000000e+00 0.000000e+00
1
Step 465000
Ar -1.165638e+00 0.000000e+00 0.000000e+00
1
Step 466000
Ar -1.162977e+00 0.000000e+00 0.000000e+00
1
Step 467000
Ar -1.167356e+00 0.000000e+00 0.000000e+00
1
Step 468000
Ar -1.161982e+00 0.000000e+00 0.000000e+00
1
Step 469000
Ar -1.168025e+00 0.000000e+00 0.000000e+00
1
Step 470000
Ar -1.168783e+00 0.000000e+00 0.000000e+00
1
Step 471000
Ar -1.157169e+00 0.000000e+00 0.000000e+00
1
Step 472000
Ar -1.156799e+00 0.000000e+00 0.000000e+00
1
Step 473000
Ar -1.168336e+00 0.000000e+00 0.000000e+00
1
Step 474000
Ar -1.142256e+00 0.000000e+00 0.000000e+00
1
Step 475000
Ar -1.175720e+00 0.000000e+00 0.000000e+00
1
Step 476000
Ar -1.160802e+00 0.000000e+00 0.000000e+00
1
Step 477000
Ar -1.185822e+00 0.000000e+00 0.000000e+00
1
Step 478000
Ar -1.158211e+00 0.000000e+00 0.000000e+00
1
Step 479000
Ar -1.169318e+00 0.000000e+00 0.000000e+00
1
Step 480000
Ar -1.214796e+00 0.000000e+00 0.000000e+00
1
Step 481000
Ar -1.221162e+00 0.000000e+00 0.000000e+00
1
Step 482000
Ar -1.218118e+00 0.000000e+00 0.000000e+00
1
Step 483000
Ar -1.219498e+00 0.000000e+00 0.000000e+00
1
Step 484000
Ar -1.221408e+00 0.000000e+00 0.000000e+00
1
Step 485000
Ar -1.216047e+00 0.000000e+00 0.000000e+00
1
Step 486000
Ar -1.216479e+00 0.000000e+00 0.000000e+00
1
Step 487000
Ar -1.216193e+00 0.000000e+00 0.000000e+00
1
Step 488000
Ar -1.218512e+00 0.000000e+00 0.000000e+00
1
Step 489000
Ar -1.215995e+00 0.000000e+00 0.000000e+00
1
Step 490000
Ar -1.210079e+00 0.000000e+00 0.000000e+00
1
Step 491000
Ar -1.220205e+00 0.000000e+00 0.000000e+00
1
Step 492000
Ar -1.218460e+00 0.000000e+00 0.000000e+00
1
Step 493000
Ar -1.218656e+00 0.000000e+00 0.000000e+00
1
Step 494000
Ar -1.219637e+00 0.000000e+00 0.000000e+00
1
Step 495000
Ar -1.220003e+00 0.000000e+00 0.000000e+00
1
Step 496000
Ar -1.172635e+00 0.000000e+00 0.000000e+00
1
Step 497000
Ar -8.984382e-01 0.000000e+00 0.000000e+00
1
Step 498000
Ar -9.009729e-01 0.000000e+00 0.000000e+00
1
Step 499000
Ar -9.094475e-01 0.000000e+00 0.000000e+00
1
Step 500000
Ar -9.070225e-01 0.000000e+00 0.000000e+00
1
Step 501000
Ar -9.095438e-01 0.000000e+00 0.000000e+00
1
Step 502000
Ar -9.038962e-01 0.000000e+00 0.000000e+00
1
Step 503000
Ar -9.128167e-01 0.000000e+00 0.000000e+00
1
Step 504000
Ar -9.035718e-01 0.000000e+00 0.000000e+00
1
Step 505000
Ar -9.011426e-01 0.000000e+00 0.000000e+00
1
Step 506000
Ar -9.429408e-01 0.000000e+00 0.000000e+00
1
Step 507000
Ar -1.060855e+00 0.000000e+00 0.000000e+00
1
Step 508000
Ar -1.018193e+00 0.000000e+00 0.000000e+00
1
Step 509000
Ar -1.020264e+00 0.000000e+00 0.000000e+00
1
Step 510000
Ar -1.080331e+00 0.000000e+00 0.000000e+00
1
Step 511000
Ar -1.044534e+00 0.000000e+00 0.000000e+00
1
Step 512000
Ar -1.046945e+00 0.000000e+00 0.000000e+00
1
Step 513000
Ar -1.041051e+00 0.000000e+00 0.000000e+00
1
Step 514000
Ar -1.041782e+00 0.000000e+00 0.000000e+00
1
Step 515000
Ar -1.041980e+00 0.000000e+00 0.000000e+00
1
Step 516000
Ar -1.041991e+00 0.000000e+00 0.000000e+00
1
Step 517000
Ar -1.063139e+00 0.000000e+00 0.000000e+00
1
Step 518000
Ar -1.061953e+00 0.000000e+00 0.000000e+00
1
Step 519000
Ar -1.074203e+00 0.000000e+00 0.000000e+00
1
Step 520000
Ar -1.063170e+00 0.000000e+00 0.000000e+00
1
Step 521000
Ar -1.060856e+00 0.000000e+00 0.000000e+00
1
Step 522000
Ar -1.055930e+00 0.000000e+00 0.000000e+00
1
Step 523000
Ar -8.046146e-01 0.000000e+00 0.000000e+00
1
Step 524000
Ar -8.097397e-01 0.000000e+00 0.000000e+00
1
Step 525000
Ar -8.041812e-01 0.000000e+00 0.000000e+00
1
Step 526000
Ar -8.756351e-01 0.000000e+00 0.000000e+00
1
Step 527000
Ar -8.261494e-01 0.000000e+00 0.000000e+00
1
Step 528000
Ar -8.701707e-01 0.000000e+00 0.000000e+00
1
Step 529000
Ar -8.653880e-01 0.000000e+00 0.000000e+00
1
Step 530000
Ar -9.023031e-01 0.000000e+00 0.000000e+00
1
Step 531000
Ar -1.019656e+00 0.000000e+00 0.000000e+00
1
Step 532000
Ar -1.024896e+00 0.000000e+00 0.000000e+00
1
Step 533000
Ar -9.583989e-01 0.000000e+00 0.000000e+00
1
Step 534000
Ar -9.045634e-01 0.000000e+00 0.000000e+00
1
Step 535000
Ar -9.231879e-01 0.000000e+00 0.000000e+00
1
Step 536000
Ar -9.078027e-01 0.000000e+00 0.000000e+00
1
Step 537000
Ar -9.061786e-01 0.000000e+00 0.000000e+00
1
Step 538000
Ar -1.011855e+00 0.000000e+00 0.000000e+00
1
Step 539000
Ar -9.583094e-01 0.000000e+00 0.000000e+00
1
Step 540000
Ar -9.559208e-01 0.000000e+00 0.000000e+00
1
Step 541000
Ar -9.641845e-01 0.000000e+00 0.000000e+00
1
Step 542000
Ar -9.605873e-01 0.000000e+00 0.000000e+00
1
Step 543000
Ar -1.018408e+00 0.000000e+00 0.000000e+00
1
Step 544000
Ar -1.017493e+00 0.000000e+00 0.000000e+00
1
Step 545000
Ar -9.152530e-01 0.000000e+00 0.000000e+00
1
Step 546000
Ar -9.740823e-01 0.000000e+00 0.000000e+00
1
Step 547000
Ar -1.016841e+00 0.000000e+00 0.000000e+00
1
Step 548000
Ar -9.853259e-01 0.000000e+00 0.000000e+00
1
Step 549000
Ar -9.929480e-01 0.000000e+00 0.000000e+00
1
Step 550000
Ar -9.339025e-01 0.000000e+00 0.000000e+00
1
Step 551000
Ar -9.251313e-01 0.000000e+00 0.000000e+00
1
Step 552000
Ar -9.135624e-01 0.000000e+00 0.000000e+00
1
Step 553000
Ar -8.040915e-01 0.000000e+00 0.000000e+00
1
Step 554000
Ar -7.985620e-01 0.000000e+00 0.000000e+00
1
Step 555000
Ar -8.008968e-01 0.000000e+00 0.000000e+00
1
Step 556000
Ar -8.037529e-01 0.000000e+00 0.000000e+00
1
Step 557000
Ar -8.061366e-01 0.000000e+00 0.000000e+00
1
Step 558000
Ar -8.021255e-01 0.000000e+00 0.000000e+00
1
Step 559000
Ar -8.039709e-01 0.000000e+00 0.000000e+00
1
Step 560000
Ar -8.002251e-01 0.000000e+00 0.000000e+00
1
Step 561000
Ar -8.113099e-01 0.000000e+00 0.000000e+00
1
Step 562000
Ar -8.247541e-01 0.000000e+00 0.000000e+00
1
Step 563000
Ar -8.041390e-01 0.000000e+00 0.000000e+00
1
Step 564000
Ar -8.397818e-01 0.000000e+00 0.000000e+00
1
Step 565000
Ar -1.056091e+00 0.000000e+00 0.000000e+00
1
Step 566000
Ar -1.098703e+00 0.000000e+00 0.000000e+00
1
Step 567000
Ar -1.089411e+00 0.000000e+00 0.000000e+00
1
Step 568000
Ar -1.091453e+00 0.000000e+00 0.000000e+00
1
Step 569000
Ar -1.094839e+00 0.000000e+00 0.000000e+00
1
Step 570000
Ar -1.078229e+00 0.000000e+00 0.000000e+00
1
Step 571000
Ar -1.096598e+00 0.000000e+00 0.000000e+00
1
Step 572000
Ar -1.062424e+00 0.000000e+00 0.000000e+00
1
Step 573000
Ar -1.189120e+00 0.000000e+00 0.000000e+00
1
Step 574000
Ar -1.176466e+00 0.000000e+00 0.000000e+00
1
Step 575000
Ar -1.165912e+00 0.000000e+00 0.000000e+00
1
Step 576000
Ar -1.255439e+00 0.000000e+00 0.000000e+00
1
Step 577000
Ar -1.284951e+00 0.000000e+00 0.000000e+00
1
Step 578000
Ar -1.294754e+00 0.000000e+00 0.000000e+00
1
Step 579000
Ar -1.253240e+00 0.000000e+00 0.000000e+00
1
Step 580000
Ar -1.187984e+00 0.000000e+00 0.000000e+00
1
Step 581000
Ar -1.193896e+00 0.000000e+00 0.000000e+00
1
Step 582000
Ar -1.207311e+00 0.000000e+00 0.000000e+00
1
Step 583000
Ar -1.170081e+00 0.000000e+00 0.000000e+00
1
Step 584000
Ar -1.181262e+00 0.000000e+00 0.000000e+00
1
Step 585000
Ar -1.211523e+00 0.000000e+00 0.000000e+00
1
Step 586000
Ar -1.169978e+00 0.000000e+00 0.000000e+00
1
Step 587000
Ar -1.177649e+00 0.000000e+00 0.000000e+00
1
Step 588000
Ar -1.198667e+00 0.000000e+00 0.000000e+00
1
Step 589000
Ar -1.019970e+00 0.000000e+00 0.000000e+00
1
Step 590000
Ar -1.020200e+00 0.000000e+00 0.000000e+00
1
Step 591000
Ar -1.025611e+00 0.000000e+00 0.000000e+00
1
Step 592000
Ar -1.018224e+00 0.000000e+00 0.000000e+00
1
Step 593000
Ar -1.016636e+00 0.000000e+00 0.000000e+00
1
Step 594000
Ar -1.021058e+00 0.000000e+00 0.000000e+00
1
Step 595000
Ar -1.020759e+00 0.000000e+00 0.000000e+00
1
Step 596000
Ar -1.020810e+00 0.000000e+00 0.000000e+00
1
Step 597000
Ar -1.019110e+00 0.000000e+00 0.000000e+00
1
Step 598000
Ar -1.020294e+00 0.000000e+00 0.000000e+00
1
Step 599000
Ar -1.026267e+00 0.000000e+00 0.000000e+00
1
Step 600000
Ar -1.021009e+00 0.000000e+00 0.000000e+00
1
Step 601000
Ar -1.015539e+00 0.000000e+00 0.000000e+00
1
Step 602000
Ar -1.006670e+00 0.000000e+00 0.000000e+00
1
Step 603000
Ar -1.016470e+00 0.000000e+00 0.000000e+00
1
Step 604000
Ar -1.019245e+00 0.000000e+00 0.000000e+00
1
Step 605000
Ar -1.020624e+00 0.000000e+00 0.000000e+00
1
Step 606000
Ar -1.022240e+00 0.000000e+00 0.000000e+00
1
Step 607000
Ar -1.022335e+00 0.000000e+00 0.000000e+00
1
Step 608000
Ar -1.014168e+00 0.000000e+00 0.000000e+00
1
Step 609000
Ar -1.020209e+00 0.000000e+00 0.000000e+00
1
Step 610000
Ar -8.247952e-01 0.000000e+00 0.000000e+00
1
Step 611000
Ar -8.394975e-01 0.000000e+00 0.000000e+00
1
Step 612000
Ar -7.429642e-01 0.000000e+00 0.000000e+00
1
Step 613000
Ar -7.820006e-01 0.000000e+00 0.000000e+00
1
Step 614000
Ar -7.688507e-01 0.000000e+00 0.000000e+00
1
Step 615000
Ar -9.254179e-01 0.000000e+00 0.000000e+00
1
Step 616000
Ar -9.095144e-01 0.000000e+00 0.000000e+00
1
Step 617000
Ar -8.728645e-01 0.000000e+00 0.000000e+00
1
Step 618000
Ar -8.737992e-01 0.000000e+00 0.000000e+00
1
Step 619000
Ar -8.715449e-01 0.000000e+00 0.000000e+00
1
Step 620000
Ar -8.713463e-01 0.000000e+00 0.000000e+00
1
Step 621000
Ar -8.567991e-01 0.000000e+00 0.000000e+00
1
Step 622000
Ar -7.173044e-01 0.000000e+00 0.000000e+00
1
Step 623000
Ar -7.775045e-01 0.000000e+00 0.000000e+00
1
Step 624000
Ar -7.757115e-01 0.000000e+00 0.000000e+00
1
Step 625000
Ar -7.095201e-01 0.000000e+00 0.000000e+00
1
Step 626000
Ar -7.625084e-01 0.000000e+00 0.000000e+00
1
Step 627000
Ar -6.319253e-01 0.000000e+00 0.000000e+00
1
Step 628000
Ar -6.180763e-01 0.000000e+00 0.000000e+00
1
Step 629000
Ar -6.314080e-01 0.000000e+00 0.000000e+00
1
Step 630000
Ar -6.270619e-01 0.000000e+00 0.000000e+00
1
Step 631000
Ar -6.190915e-01 0.000000e+00 0.000000e+00
1
Step 632000
Ar -6.174347e-01 0.000000e+00 0.000000e+00
1
Step 633000
Ar -5.934180e-01 0.000000e+00 0.000000e+00
1
Step 634000
Ar -5.185035e-01 0.000000e+00 0.000000e+00
1
Step 635000
Ar -5.593683e-01 0.000000e+00 0.000000e+00
1
Step 636000
Ar -5.383019e-01 0.000000e+00 0.000000e+00
1
Step 637000
Ar -5.465751e-01 0.000000e+00 0.000000e+00
1
Step 638000
Ar -5.125018e-01 0.000000e+00 0.000000e+00
1
Step 639000
Ar -5.373951e-01 0.000000e+00 0.000000e+00
1
Step 640000
Ar -5.366631e-01 0.000000e+00 0.000000e+00
1
Step 641000
Ar -3.862893e-01 0.000000e+00 0.000000e+00
1
Step 642000
Ar -3.708563e-01 0.000000e+00 0.000000e+00
1
Step 643000
Ar -1.806180e-01 0.000000e+00 0.000000e+00
1
Step 644000
Ar -5.780896e-02 0.000000e+00 0.000000e+00
1
Step 645000
Ar -4.545210e-01 0.000000e+00 0.000000e+00
1
Step 646000
Ar -4.491822e-01 0.000000e+00 0.000000e+00
1
Step 647000
Ar -4.552946e-01 0.000000e+00 0.000000e+00
1
Step 648000