1
Step 120000
Ar 1.002060e+00 0.000000e+00 0.000000e+00
1
Step 121000
Ar 1.013750e+00 0.000000e+00 0.000000e+00
1
Step 122000
Ar 9.855114e-01 0.000000e+00 0.000000e+00
1
Step 123000
Ar 9.890039e-01 0.000000e+00 0.000000e+00
1
Step 124000
Ar 9.902843e-01 0.000000e+00 0.000000e+00
1
Step 125000
Ar 1.022547e+00 0.000000e+00 0.000000e+00
1
Step 126000
Ar 1.002447e+00 0.000000e+00 0.000000e+00
1
Step 127000
Ar 9.968551e-01 0.000000e+00 0.000000e+00
1
Step 128000
Ar 1.002535e+00 0.000000e+00 0.000000e+00
1
Step 129000
Ar 9.834042e-01 0.000000e+00 0.000000e+00
1
Step 130000
Ar 9.906323e-01 0.000000e+00 0.000000e+00
1
Step 131000
Ar 9.859593e-01 0.000000e+00 0.000000e+00
1
Step 132000
Ar 9.933368e-01 0.000000e+00 0.000000e+00
1
Step 133000
Ar 9.834778e-01 0.000000e+00 0.000000e+00
1
Step 134000
Ar 9.903798e-01 0.000000e+00 0.000000e+00
1
Step 135000
Ar 9.880184e-01 0.000000e+00 0.000000e+00
1
Step 136000
Ar 9.744803e-01 0.000000e+00 0.000000e+00
1
Step 137000
Ar 9.681516e-01 0.000000e+00 0.000000e+00
1
Step 138000
Ar 9.772110e-01 0.000000e+00 0.000000e+00
1
Step 139000
Ar 9.610497e-01 0.000000e+00 0.000000e+00
1
Step 140000
Ar 9.639011e-01 0.000000e+00 0.000000e+00
1
Step 141000
Ar 9.652340e-01 0.000000e+00 0.000000e+00
1
Step 142000
Ar 1.033848e+00 0.000000e+00 0.000000e+00
1
Step 143000
Ar 1.049787e+00 0.000000e+00 0.000000e+00
1
Step 144000
Ar 1.060083e+00 0.000000e+00 0.000000e+00
1
Step 145000
Ar 1.056266e+00 0.000000e+00 0.000000e+00
1
Step 146000
Ar 1.064967e+00 0.000000e+00 0.000000e+00
1
Step 147000
Ar 1.065966e+00 0.000000e+00 0.000000e+00
1
Step 148000
Ar 1.059422e+00 0.000000e+00 0.000000e+00
1
Step 149000
Ar 8.802186e-01 0.000000e+00 0.000000e+00
1
Step 150000
Ar 1.000071e+00 0.000000e+00 0.000000e+00
1
Step 151000
Ar 9.590247e-01 0.000000e+00 0.000000e+00
1
Step 152000
Ar 1.035900e+00 0.000000e+00 0.000000e+00
1
Step 153000
Ar 1.032147e+00 0.000000e+00 0.000000e+00
1
Step 154000
Ar 1.121497e+00 0.000000e+00 0.000000e+00
1
Step 155000
Ar 9.541152e-01 0.000000e+00 0.000000e+00
1
Step 156000
Ar 9.444049e-01 0.000000e+00 0.000000e+00
1
Step 157000
Ar 1.081282e+00 0.000000e+00 0.000000e+00
1
Step 158000
Ar 1.078313e+00 0.000000e+00 0.000000e+00
1
Step 159000
Ar 1.079867e+00 0.000000e+00 0.000000e+00
1
Step 160000
Ar 1.080352e+00 0.000000e+00 0.000000e+00
1
Step 161000
Ar 1.078127e+00 0.000000e+00 0.000000e+00
1
Step 162000
Ar 1.077098e+00 0.000000e+00 0.000000e+00
1
Step 163000
Ar 1.013629e+00 0.000000e+00 0.000000e+00
1
Step 164000
Ar 9.345052e-01 0.000000e+00 0.000000e+00
1
Step 165000
Ar 9.340782e-01 0.000000e+00 0.000000e+00
1
Step 166000
Ar 9.340882e-01 0.000000e+00 0.000000e+00
1
Step 167000
Ar 9.184891e-01 0.000000e+00 0.000000e+00
1
Step 168000
Ar 1.040516e+00 0.000000e+00 0.000000e+00
1
Step 169000
Ar 9.790297e-01 0.000000e+00 0.000000e+00
1
Step 170000
Ar 9.554363e-01 0.000000e+00 0.000000e+00
1
Step 171000
Ar 1.035615e+00 0.000000e+00 0.000000e+00
1
Step 172000
Ar 7.362454e-01 0.000000e+00 0.000000e+00
1
Step 173000
Ar 9.022043e-01 0.000000e+00 0.000000e+00
1
Step 174000
Ar 9.080815e-01 0.000000e+00 0.000000e+00
1
Step 175000
Ar 9.018662e-01 0.000000e+00 0.000000e+00
1
Step 176000
Ar 8.948076e-01 0.000000e+00 0.000000e+00
1
Step 177000
Ar 8.953697e-01 0.000000e+00 0.000000e+00
1
Step 178000
Ar 9.000343e-01 0.000000e+00 0.000000e+00
1
Step 179000
Ar 8.965125e-01 0.000000e+00 0.000000e+00
1
Step 180000
Ar 8.969113e-01 0.000000e+00 0.000000e+00
1
Step 181000
Ar 8.954816e-01 0.000000e+00 0.000000e+00
1
Step 182000
Ar 8.992302e-01 0.000000e+00 0.000000e+00
1
Step 183000
Ar 8.984104e-01 0.000000e+00 0.000000e+00
1
Step 184000
Ar 9.414620e-01 0.000000e+00 0.000000e+00
1
Step 185000
Ar 8.546332e-01 0.000000e+00 0.000000e+00
1
Step 186000
Ar 1.096753e+00 0.000000e+00 0.000000e+00
1
Step 187000
Ar 1.212193e+00 0.000000e+00 0.000000e+00
1
Step 188000
Ar 1.180639e+00 0.000000e+00 0.000000e+00
1
Step 189000
Ar 9.806462e-01 0.000000e+00 0.000000e+00
1
Step 190000
Ar 7.927086e-01 0.000000e+00 0.000000e+00
1
Step 191000
Ar 8.488037e-01 0.000000e+00 0.000000e+00
1
Step 192000
Ar 8.478565e-01 0.000000e+00 0.000000e+00
1
Step 193000
Ar 1.001730e+00 0.000000e+00 0.000000e+00
1
Step 194000
Ar 9.509000e-01 0.000000e+00 0.000000e+00
1
Step 195000
Ar 9.224840e-01 0.000000e+00 0.000000e+00
1
Step 196000
Ar 8.998839e-01 0.000000e+00 0.000000e+00
1
Step 197000
Ar 1.070547e+00 0.000000e+00 0.000000e+00
1
Step 198000
Ar 1.083349e+00 0.000000e+00 0.000000e+00
1
Step 199000
Ar 1.088763e+00 0.000000e+00 0.000000e+00
1
Step 200000
Ar 7.655974e-01 0.000000e+00 0.000000e+00
1
Step 201000
Ar 8.671986e-01 0.000000e+00 0.000000e+00
1
Step 202000
Ar 9.688266e-01 0.000000e+00 0.000000e+00
1
Step 203000
Ar 6.176172e-01 0.000000e+00 0.000000e+00
1
Step 204000
Ar 7.578797e-01 0.000000e+00 0.000000e+00
1
Step 205000
Ar 9.286422e-01 0.000000e+00 0.000000e+00
1
Step 206000
Ar 8.875949e-01 0.000000e+00 0.000000e+00
1
Step 207000
Ar 1.193058e+00 0.000000e+00 0.000000e+00
1
Step 208000
Ar 8.179320e-01 0.000000e+00 0.000000e+00
1
Step 209000
Ar 1.065586e+00 0.000000e+00 0.000000e+00
1
Step 210000
Ar 1.089155e+00 0.000000e+00 0.000000e+00
1
Step 211000
Ar 1.092468e+00 0.000000e+00 0.000000e+00
1
Step 212000
Ar 1.091179e+00 0.000000e+00 0.000000e+00
1
Step 213000
Ar 1.093362e+00 0.000000e+00 0.000000e+00
1
Step 214000
Ar 1.090040e+00 0.000000e+00 0.000000e+00
1
Step 215000
Ar 1.088777e+00 0.000000e+00 0.000000e+00
1
Step 216000
Ar 1.090919e+00 0.000000e+00 0.000000e+00
1
Step 217000
Ar 8.835098e-01 0.000000e+00 0.000000e+00
1
Step 218000
Ar 7.509089e-01 0.000000e+00 0.000000e+00
1
Step 219000
Ar 1.057004e+00 0.000000e+00 0.000000e+00
1
Step 220000
Ar 9.297963e-01 0.000000e+00 0.000000e+00
1
Step 221000
Ar 1.188755e+00 0.000000e+00 0.000000e+00
1
Step 222000
Ar 1.101181e+00 0.000000e+00 0.000000e+00
1
Step 223000
Ar 1.094565e+00 0.000000e+00 0.000000e+00
1
Step 224000
Ar 1.096412e+00 0.000000e+00 0.000000e+00
1
Step 225000
Ar 1.098851e+00 0.000000e+00 0.000000e+00
1
Step 226000
Ar 1.266376e+00 0.000000e+00 0.000000e+00
1
Step 227000
Ar 1.054062e+00 0.000000e+00 0.000000e+00
1
Step 228000
Ar 8.780415e-01 0.000000e+00 0.000000e+00
1
Step 229000
Ar 8.794655e-01 0.000000e+00 0.000000e+00
1
Step 230000
Ar 8.728734e-01 0.000000e+00 0.000000e+00
1
Step 231000
Ar 8.828356e-01 0.000000e+00 0.000000e+00
1
Step 232000
Ar 8.818284e-01 0.000000e+00 0.000000e+00
1
Step 233000
Ar 8.750565e-01 0.000000e+00 0.000000e+00
1
Step 234000
Ar 8.742287e-01 0.000000e+00 0.000000e+00
1
Step 235000
Ar 8.789754e-01 0.000000e+00 0.000000e+00
1
Step 236000
Ar 8.232069e-01 0.000000e+00 0.000000e+00
1
Step 237000
Ar 9.875218e-01 0.000000e+00 0.000000e+00
1
Step 238000
Ar 7.296255e-01 0.000000e+00 0.000000e+00
1
Step 239000
Ar 8.843297e-01 0.000000e+00 0.000000e+00
1
Step 240000
Ar 8.789977e-01 0.000000e+00 0.000000e+00
1
Step 241000
Ar 8.769815e-01 0.000000e+00 0.000000e+00
1
Step 242000
Ar 8.788610e-01 0.000000e+00 0.000000e+00
1
Step 243000
Ar 8.737465e-01 0.000000e+00 0.000000e+00
1
Step 244000
Ar 8.764592e-01 0.000000e+00 0.000000e+00
1
Step 245000
Ar 1.080792e+00 0.000000e+00 0.000000e+00
1
Step 246000
Ar 1.077517e+00 0.000000e+00 0.000000e+00
1
Step 247000
Ar 7.935415e-01 0.000000e+00 0.000000e+00
1
Step 248000
Ar 8.628809e-01 0.000000e+00 0.000000e+00
1
Step 249000
Ar 1.264262e+00 0.000000e+00 0.000000e+00
1
Step 250000
Ar 8.162741e-01 0.000000e+00 0.000000e+00
1
Step 251000
Ar 9.859035e-01 0.000000e+00 0.000000e+00
1
Step 252000
Ar 8.792040e-01 0.000000e+00 0.000000e+00
1
Step 253000
Ar 8.802502e-01 0.000000e+00 0.000000e+00
1
Step 254000
Ar 8.766506e-01 0.000000e+00 0.000000e+00
1
Step 255000
Ar 8.719097e-01 0.000000e+00 0.000000e+00
1
Step 256000
Ar 8.755783e-01 0.000000e+00 0.000000e+00
1
Step 257000
Ar 8.823214e-01 0.000000e+00 0.000000e+00
1
Step 258000
Ar 7.316485e-01 0.000000e+00 0.000000e+00
1
Step 259000
Ar 6.277717e-01 0.000000e+00 0.000000e+00
1
Step 260000
Ar 8.284836e-01 0.000000e+00 0.000000e+00
1
Step 261000
Ar 9.999257e-01 0.000000e+00 0.000000e+00
1
Step 262000
Ar 8.285403e-01 0.000000e+00 0.000000e+00
1
Step 263000
Ar 1.032236e+00 0.000000e+00 0.000000e+00
1
Step 264000
Ar 1.153854e+00 0.000000e+00 0.000000e+00
1
Step 265000
Ar 1.153397e+00 0.000000e+00 0.000000e+00
1
Step 266000
Ar 1.016175e+00 0.000000e+00 0.000000e+00
1
Step 267000
Ar 9.552184e-01 0.000000e+00 0.000000e+00
1
Step 268000
Ar 9.646042e-01 0.000000e+00 0.000000e+00
1
Step 269000
Ar 7.025246e-01 0.000000e+00 0.000000e+00
1
Step 270000
Ar 1.147663e+00 0.000000e+00 0.000000e+00
1
Step 271000
Ar 8.788863e-01 0.000000e+00 0.000000e+00
1
Step 272000
Ar 1.076238e+00 0.000000e+00 0.000000e+00
1
Step 273000
Ar 9.028775e-01 0.000000e+00 0.000000e+00
1
Step 274000
Ar 9.359468e-01 0.000000e+00 0.000000e+00
1
Step 275000
Ar 9.821799e-01 0.000000e+00 0.000000e+00
1
Step 276000
Ar 1.098299e+00 0.000000e+00 0.000000e+00
1
Step 277000
Ar 8.857169e-01 0.000000e+00 0.000000e+00
1
Step 278000
Ar 9.438752e-01 0.000000e+00 0.000000e+00
1
Step 279000
Ar 7.598555e-01 0.000000e+00 0.000000e+00
1
Step 280000
Ar 1.131960e+00 0.000000e+00 0.000000e+00
1
Step 281000
Ar 7.703842e-01 0.000000e+00 0.000000e+00
1
Step 282000
Ar 1.161264e+00 0.000000e+00 0.000000e+00
1
Step 283000
Ar 7.241416e-01 0.000000e+00 0.000000e+00
1
Step 284000
Ar 9.351156e-01 0.000000e+00 0.000000e+00
1
Step 285000
Ar 1.129312e+00 0.000000e+00 0.000000e+00
1
Step 286000
Ar 8.714934e-01 0.000000e+00 0.000000e+00
1
Step 287000
Ar 1.121037e+00 0.000000e+00 0.000000e+00
1
Step 288000
Ar 6.052629e-01 0.000000e+00 0.000000e+00
1
Step 289000
Ar -9.274414e-02 0.000000e+00 0.000000e+00
1
Step 290000
Ar -9.856185e-01 0.000000e+00 0.000000e+00
1
Step 291000
Ar -1.001045e+00 0.000000e+00 0.000000e+00
1
Step 292000
Ar -9.845953e-01 0.000000e+00 0.000000e+00
1
Step 293000
Ar -9.792345e-01 0.000000e+00 0.000000e+00
1
Step 294000
Ar -9.828244e-01 0.000000e+00 0.000000e+00
1
Step 295000
Ar -9.819205e-01 0.000000e+00 0.000000e+00
1
Step 296000
Ar -9.933247e-01 0.000000e+00 0.000000e+00
1
Step 297000
Ar -9.923475e-01 0.000000e+00 0.000000e+00
1
Step 298000
Ar -9.889058e-01 0.000000e+00 0.000000e+00
1
Step 299000
Ar -9.968911e-01 0.000000e+00 0.000000e+00
1
Step 300000
Ar -9.921724e-01 0.000000e+00 0.000000e+00
1
Step 301000
Ar -1.033945e+00 0.000000e+00 0.000000e+00
1
Step 302000
Ar -1.025701e+00 0.000000e+00 0.000000e+00
1
Step 303000
Ar -1.022789e+00 0.000000e+00 0.000000e+00
1
Step 304000
Ar -1.030744e+00 0.000000e+00 0.000000e+00
1
Step 305000
Ar -1.032992e+00 0.000000e+00 0.000000e+00
1
Step 306000
Ar -1.029327e+00 0.000000e+00 0.000000e+00
1
Step 307000
Ar -1.045694e+00 0.000000e+00 0.000000e+00
1
Step 308000
Ar -9.604847e-01 0.000000e+00 0.000000e+00
1
Step 309000
Ar -9.714359e-01 0.000000e+00 0.000000e+00
1
Step 310000
Ar -9.768097e-01 0.000000e+00 0.000000e+00
1
Step 311000
Ar -9.707319e-01 0.000000e+00 0.000000e+00
1
Step 312000
Ar -9.690090e-01 0.000000e+00 0.000000e+00
1
Step 313000
Ar -9.701847e-01 0.000000e+00 0.000000e+00
1
Step 314000
Ar -9.663778e-01 0.000000e+00 0.000000e+00
1
Step 315000
Ar -9.759520e-01 0.000000e+00 0.000000e+00
1
Step 316000
Ar -9.770005e-01 0.000000e+00 0.000000e+00
1
Step 317000
Ar -9.722620e-01 0.000000e+00 0.000000e+00
1
Step 318000
Ar -9.617459e-01 0.000000e+00 0.000000e+00
1
Step 319000
Ar -9.612158e-01 0.000000e+00 0.000000e+00
1
Step 320000
Ar -9.621457e-01 0.000000e+00 0.000000e+00
1
Step 321000
Ar -9.469135e-01 0.000000e+00 0.000000e+00
1
Step 322000
Ar -9.399109e-01 0.000000e+00 0.000000e+00
1
Step 323000
Ar -1.061563e+00 0.000000e+00 0.000000e+00
1
Step 324000
Ar -1.062653e+00 0.000000e+00 0.000000e+00
1
Step 325000
Ar -1.056628e+00 0.000000e+00 0.000000e+00
1
Step 326000
Ar -1.064830e+00 0.000000e+00 0.000000e+00
1
Step 327000
Ar -1.061089e+00 0.000000e+00 0.000000e+00
1
Step 328000
Ar -1.061005e+00 0.000000e+00 0.000000e+00
1
Step 329000
Ar -9.928532e-01 0.000000e+00 0.000000e+00
1
Step 330000
Ar -9.747628e-01 0.000000e+00 0.000000e+00
1
Step 331000
Ar -1.021544e+00 0.000000e+00 0.000000e+00
1
Step 332000
Ar -9.663527e-01 0.000000e+00 0.000000e+00
1
Step 333000
Ar -1.001065e+00 0.000000e+00 0.000000e+00
1
Step 334000
Ar -1.104054e+00 0.000000e+00 0.000000e+00
1
Step 335000
Ar -1.001011e+00 0.000000e+00 0.000000e+00
1
Step 336000
Ar -9.406884e-01 0.000000e+00 0.000000e+00
1
Step 337000
Ar -1.022558e+00 0.000000e+00 0.000000e+00
1
Step 338000
Ar -9.432012e-01 0.000000e+00 0.000000e+00
1
Step 339000
Ar -9.487469e-01 0.000000e+00 0.000000e+00
1
Step 340000
Ar -9.437052e-01 0.000000e+00 0.000000e+00
1
Step 341000
Ar -9.444933e-01 0.000000e+00 0.000000e+00
1
Step 342000
Ar -9.464537e-01 0.000000e+00 0.000000e+00
1
Step 343000
Ar -9.421553e-01 0.000000e+00 0.000000e+00
1
Step 344000
Ar -9.435934e-01 0.000000e+00 0.000000e+00
1
Step 345000
Ar -9.425053e-01 0.000000e+00 0.000000e+00
1
Step 346000
Ar -9.419460e-01 0.000000e+00 0.000000e+00
1
Step 347000
Ar -9.404633e-01 0.000000e+00 0.000000e+00
1
Step 348000
Ar -9.425904e-01 0.000000e+00 0.000000e+00
1
Step 349000
Ar -9.434865e-01 0.000000e+00 0.000000e+00
1
Step 350000
Ar -9.383868e-01 0.000000e+00 0.000000e+00
1
Step 351000
Ar -9.437096e-01 0.000000e+00 0.000000e+00
1
Step 352000
Ar -9.494433e-01 0.000000e+00 0.000000e+00
1
Step 353000
Ar -9.413023e-01 0.000000e+00 0.000000e+00
1
Step 354000
Ar -9.393646e-01 0.000000e+00 0.000000e+00
1
Step 355000
Ar -9.260751e-01 0.000000e+00 0.000000e+00
1
Step 356000
Ar -9.193417e-01 0.000000e+00 0.000000e+00
1
Step 357000
Ar -1.007671e+00 0.000000e+00 0.000000e+00
1
Step 358000
Ar -1.000664e+00 0.000000e+00 0.000000e+00
1
Step 359000
Ar -9.987211e-01 0.000000e+00 0.000000e+00
1
Step 360000
Ar -1.038889e+00 0.000000e+00 0.000000e+00
1
Step 361000
Ar -8.997646e-01 0.000000e+00 0.000000e+00
1
Step 362000
Ar -1.025186e+00 0.000000e+00 0.000000e+00
1
Step 363000
Ar -9.122386e-01 0.000000e+00 0.000000e+00
1
Step 364000
Ar -9.164986e-01 0.000000e+00 0.000000e+00
1
Step 365000
Ar -9.137678e-01 0.000000e+00 0.000000e+00
1
Step 366000
Ar -9.128706e-01 0.000000e+00 0.000000e+00
1
Step 367000
Ar -9.081951e-01 0.000000e+00 0.000000e+00
1
Step 368000
Ar -1.073732e+00 0.000000e+00 0.000000e+00
1
Step 369000
Ar -1.069359e+00 0.000000e+00 0.000000e+00
1
Step 370000
Ar -1.069760e+00 0.000000e+00 0.000000e+00
1
Step 371000
Ar -1.067187e+00 0.000000e+00 0.000000e+00
1
Step 372000
Ar -1.070128e+00 0.000000e+00 0.000000e+00
1
Step 373000
Ar -1.074684e+00 0.000000e+00 0.000000e+00
1
Step 374000
Ar -1.074691e+00 0.000000e+00 0.000000e+00
1
Step 375000
Ar -1.069327e+00 0.000000e+00 0.000000e+00
1
Step 376000
Ar -1.070410e+00 0.000000e+00 0.000000e+00
1
Step 377000
Ar -1.070002e+00 0.000000e+00 0.000000e+00
1
Step 378000
Ar -1.028919e+00 0.000000e+00 0.000000e+00
1
Step 379000
Ar -9.711330e-01 0.000000e+00 0.000000e+00
1
Step 380000
Ar -9.687621e-01 0.000000e+00 0.000000e+00
1
Step 381000
Ar -1.024481e+00 0.000000e+00 0.000000e+00
1
Step 382000
Ar -8.923647e-01 0.000000e+00 0.000000e+00
1
Step 383000
Ar -9.669329e-01 0.000000e+00 0.000000e+00
1
Step 384000
Ar -1.172189e+00 0.000000e+00 0.000000e+00
1
Step 385000
Ar -8.994650e-01 0.000000e+00 0.000000e+00
1
Step 386000
Ar -8.919414e-01 0.000000e+00 0.000000e+00
1
Step 387000
Ar -9.006353e-01 0.000000e+00 0.000000e+00
1
Step 388000
Ar -8.979659e-01 0.000000e+00 0.000000e+00
1
Step 389000
Ar -8.972891e-01 0.000000e+00 0.000000e+00
1
Step 390000
Ar -8.985038e-01 0.000000e+00 0.000000e+00
1
Step 391000
Ar -8.087156e-01 0.000000e+00 0.000000e+00
1
Step 392000
Ar -7.262825e-01 0.000000e+00 0.000000e+00
1
Step 393000
Ar -1.077711e+00 0.000000e+00 0.000000e+00
1
Step 394000
Ar -9.876247e-01 0.000000e+00 0.000000e+00
1
Step 395000
Ar -8.786442e-01 0.000000e+00 0.000000e+00
1
Step 396000
Ar -1.152786e+00 0.000000e+00 0.000000e+00
1
Step 397000
Ar -7.947531e-01 0.000000e+00 0.000000e+00
1
Step 398000
Ar -9.809202e-01 0.000000e+00 0.000000e+00
1
Step 399000
Ar -8.924697e-01 0.000000e+00 0.000000e+00
1
Step 400000
Ar -8.967933e-01 0.000000e+00 0.000000e+00
1
Step 401000
Ar -8.357256e-01 0.000000e+00 0.000000e+00
1
Step 402000
Ar -1.015818e+00 0.000000e+00 0.000000e+00
1
Step 403000
Ar -1.040031e+00 0.000000e+00 0.000000e+00
1
Step 404000
Ar -9.404477e-01 0.000000e+00 0.000000e+00
1
Step 405000
Ar -9.625503e-01 0.000000e+00 0.000000e+00
1
Step 406000
Ar -8.329618e-01 0.000000e+00 0.000000e+00
1
Step 407000
Ar -1.135942e+00 0.000000e+00 0.000000e+00
1
Step 408000
Ar -1.039376e+00 0.000000e+00 0.000000e+00
1
Step 409000
Ar -9.698869e-01 0.000000e+00 0.000000e+00
1
Step 410000
Ar -9.802531e-01 0.000000e+00 0.000000e+00
1
Step 411000
Ar -9.787846e-01 0.000000e+00 0.000000e+00
1
Step 412000
Ar -9.798318e-01 0.000000e+00 0.000000e+00
1
Step 413000
Ar -9.359414e-01 0.000000e+00 0.000000e+00
1
Step 414000
Ar -8.854524e-01 0.000000e+00 0.000000e+00
1
Step 415000
Ar -8.826534e-01 0.000000e+00 0.000000e+00
1
Step 416000
Ar -8.908626e-01 0.000000e+00 0.000000e+00
1
Step 417000
Ar -8.845898e-01 0.000000e+00 0.000000e+00
1
Step 418000
Ar -1.031589e+00 0.000000e+00 0.000000e+00
1
Step 419000
Ar -9.755525e-01 0.000000e+00 0.000000e+00
1
Step 420000
Ar -9.761678e-01 0.000000e+00 0.000000e+00
1
Step 421000
Ar -9.912916e-01 0.000000e+00 0.000000e+00
1
Step 422000
Ar -9.727851e-01 0.000000e+00 0.000000e+00
1
Step 423000
Ar -9.820101e-01 0.000000e+00 0.000000e+00
1
Step 424000
Ar -1.011891e+00 0.000000e+00 0.000000e+00
1
Step 425000
Ar -9.771550e-01 0.000000e+00 0.000000e+00
1
Step 426000
Ar -9.761704e-01 0.000000e+00 0.000000e+00
1
Step 427000
Ar -9.733569e-01 0.000000e+00 0.000000e+00
1
Step 428000
Ar -9.746261e-01 0.000000e+00 0.000000e+00
1
Step 429000
Ar -9.809710e-01 0.000000e+00 0.000000e+00
1
Step 430000
Ar -9.756123e-01 0.000000e+00 0.000000e+00
1
Step 431000
Ar -9.719801e-01 0.000000e+00 0.000000e+00
1
Step 432000
Ar -9.295650e-01 0.000000e+00 0.000000e+00
1
Step 433000
Ar -9.220511e-01 0.000000e+00 0.000000e+00
1
Step 434000
Ar -1.117475e+00 0.000000e+00 0.000000e+00
1
Step 435000
Ar -1.054400e+00 0.000000e+00 0.000000e+00
1
Step 436000
Ar -7.440448e-01 0.000000e+00 0.000000e+00
1
Step 437000
Ar -1.080094e+00 0.000000e+00 0.000000e+00
1
Step 438000
Ar -1.059520e+00 0.000000e+00 0.000000e+00
1
Step 439000
Ar -9.818616e-01 0.000000e+00 0.000000e+00
1
Step 440000
Ar -8.194267e-01 0.000000e+00 0.000000e+00
1
Step 441000
Ar -8.745524e-01 0.000000e+00 0.000000e+00
1
Step 442000
Ar -8.718981e-01 0.000000e+00 0.000000e+00
1
Step 443000
Ar -8.111111e-01 0.000000e+00 0.000000e+00
1
Step 444000
Ar -9.485181e-01 0.000000e+00 0.000000e+00
1
Step 445000
Ar -1.036934e+00 0.000000e+00 0.000000e+00
1
Step 446000
Ar -9.879096e-01 0.000000e+00 0.000000e+00
1
Step 447000
Ar -9.897407e-01 0.000000e+00 0.000000e+00
1
Step 448000
Ar -9.590653e-01 0.000000e+00 0.000000e+00
1
Step 449000
Ar -9.871791e-01 0.000000e+00 0.000000e+00
1
Step 450000
Ar -1.112055e+00 0.000000e+00 0.000000e+00
1
Step 451000
Ar -1.105514e+00 0.000000e+00 0.000000e+00
1
Step 452000
Ar -6.869624e-01 0.000000e+00 0.000000e+00
1
Step 453000
Ar -9.302504e-01 0.000000e+00 0.000000e+00
1
Step 454000
Ar -1.038367e+00 0.000000e+00 0.000000e+00
1
Step 455000
Ar -1.050945e+00 0.000000e+00 0.000000e+00
1
Step 456000
Ar -1.051422e+00 0.000000e+00 0.000000e+00
1
Step 457000
Ar -1.031063e+00 0.000000e+00 0.000000e+00
1
Step 458000
Ar -1.196178e+00 0.000000e+00 0.000000e+00
1
Step 459000
Ar -1.036536e+00 0.000000e+00 0.000000e+00
1
Step 460000
Ar -1.027202e+00 0.000000e+00 0.000000e+00
1
Step 461000
Ar -1.039543e+00 0.000000e+00 0.000000e+00
1
Step 462000
Ar -1.038689e+00 0.000000e+00 0.000000e+00
1
Step 463000
Ar -1.039468e+00 0.000000e+00 0.000000e+00
1
Step 464000
Ar -1.034568e+00 0.000000e+00 0.000000e+00
1
Step 465000
Ar -1.011658e+00 0.000000e+00 0.000000e+00
1
Step 466000
Ar -1.050615e+00 0.000000e+00 0.000000e+00
1
Step 467000
Ar -1.047231e+00 0.000000e+00 0.000000e+00
1
Step 468000
Ar -1.048834e+00 0.000000e+00 0.000000e+00
1
Step 469000
Ar -1.020297e+00 0.000000e+00 0.000000e+00
1
Step 470000
Ar -1.070434e+00 0.000000e+00 0.000000e+00
1
Step 471000
Ar -1.065162e+00 0.000000e+00 0.000000e+00
1
Step 472000
Ar -8.922631e-01 0.000000e+00 0.000000e+00
1
Step 473000
Ar -9.869654e-01 0.000000e+00 0.000000e+00
1
Step 474000
Ar -7.677359e-01 0.000000e+00 0.000000e+00
1
Step 475000
Ar -1.081183e+00 0.000000e+00 0.000000e+00
1
Step 476000
Ar -1.075894e+00 0.000000e+00 0.000000e+00
1
Step 477000
Ar -1.026190e+00 0.000000e+00 0.000000e+00
1
Step 478000
Ar -1.011545e+00 0.000000e+00 0.000000e+00
1
Step 479000
Ar -1.004348e+00 0.000000e+00 0.000000e+00
1
Step 480000
Ar -7.846159e-01 0.000000e+00 0.000000e+00
1
Step 481000
Ar -1.041295e+00 0.000000e+00 0.000000e+00
1
Step 482000
Ar -9.623971e-01 0.000000e+00 0.000000e+00
1
Step 483000
Ar -1.061310e+00 0.000000e+00 0.000000e+00
1
Step 484000
Ar -1.126614e+00 0.000000e+00 0.000000e+00
1
Step 485000
Ar -1.123687e+00 0.000000e+00 0.000000e+00
1
Step 486000
Ar -7.789386e-01 0.000000e+00 0.000000e+00
1
Step 487000
Ar -1.060634e+00 0.000000e+00 0.000000e+00
1
Step 488000
Ar -1.019471e+00 0.000000e+00 0.000000e+00
1
Step 489000
Ar -8.142071e-01 0.000000e+00 0.000000e+00
1
Step 490000
Ar -1.036299e+00 0.000000e+00 0.000000e+00
1
Step 491000
Ar -9.962194e-01 0.000000e+00 0.000000e+00
1
Step 492000
Ar -9.264358e-01 0.000000e+00 0.000000e+00
1
Step 493000
Ar -1.173980e+00 0.000000e+00 0.000000e+00
1
Step 494000
Ar -1.102655e+00 0.000000e+00 0.000000e+00
1
Step 495000
Ar -1.119113e+00 0.000000e+00 0.000000e+00
1
Step 496000
Ar -1.117593e+00 0.000000e+00 0.000000e+00
1
Step 497000
Ar -1.121750e+00 0.000000e+00 0.000000e+00
1
Step 498000
Ar -8.763556e-01 0.000000e+00 0.000000e+00
1
Step 499000
Ar -8.945807e-01 0.000000e+00 0.000000e+00
1
Step 500000
Ar -1.086954e+00 0.000000e+00 0.000000e+00
1
Step 501000
Ar -8.541402e-01 0.000000e+00 0.000000e+00
1
Step 502000
Ar -7.020442e-01 0.000000e+00 0.000000e+00
1
Step 503000
Ar -9.937850e-01 0.000000e+00 0.000000e+00
1
Step 504000
Ar -1.161120e+00 0.000000e+00 0.000000e+00
1
Step 505000
Ar -1.098361e+00 0.000000e+00 0.000000e+00
1
Step 506000
Ar -1.083599e+00 0.000000e+00 0.000000e+00
1
Step 507000
Ar -8.604356e-01 0.000000e+00 0.000000e+00
1
Step 508000
Ar -7.885712e-01 0.000000e+00 0.000000e+00
1
Step 509000
Ar -1.031315e+00 0.000000e+00 0.000000e+00
1
Step 510000
Ar -1.083615e+00 0.000000e+00 0.000000e+00
1
Step 511000
Ar -9.799290e-01 0.000000e+00 0.000000e+00
1
Step 512000
Ar -1.057142e+00 0.000000e+00 0.000000e+00
1
Step 513000
Ar -1.066648e+00 0.000000e+00 0.000000e+00
1
Step 514000
Ar -1.008222e+00 0.000000e+00 0.000000e+00
1
Step 515000
Ar -1.116802e+00 0.000000e+00 0.000000e+00
1
Step 516000
Ar -1.075403e+00 0.000000e+00 0.000000e+00
1
Step 517000
Ar -1.077780e+00 0.000000e+00 0.000000e+00
1
Step 518000
Ar -1.136047e+00 0.000000e+00 0.000000e+00
1
Step 519000
Ar -8.585404e-01 0.000000e+00 0.000000e+00
1
Step 520000
Ar -8.592454e-01 0.000000e+00 0.000000e+00
1
Step 521000
Ar -8.607699e-01 0.000000e+00 0.000000e+00
1
Step 522000
Ar -8.576915e-01 0.000000e+00 0.000000e+00
1
Step 523000
Ar -9.273979e-01 0.000000e+00 0.000000e+00
1
Step 524000
Ar -7.927254e-01 0.000000e+00 0.000000e+00
1
Step 525000
Ar -9.768186e-01 0.000000e+00 0.000000e+00
1
Step 526000
Ar -8.563045e-01 0.000000e+00 0.000000e+00
1
Step 527000
Ar -8.595117e-01 0.000000e+00 0.000000e+00
1
Step 528000
Ar -8.562231e-01 0.000000e+00 0.000000e+00
1
Step 529000
Ar -1.004614e+00 0.000000e+00 0.000000e+00
1
Step 530000
Ar -9.045955e-01 0.000000e+00 0.000000e+00
1
Step 531000
Ar -1.098488e+00 0.000000e+00 0.000000e+00
1
Step 532000
Ar -1.055331e+00 0.000000e+00 0.000000e+00
1
Step 533000
Ar -9.473432e-01 0.000000e+00 0.000000e+00
1
Step 534000
Ar -8.410155e-01 0.000000e+00 0.000000e+00
1
Step 535000
Ar -1.135811e+00 0.000000e+00 0.000000e+00
1
Step 536000
Ar -9.841071e-01 0.000000e+00 0.000000e+00
1
Step 537000
Ar -9.441788e-01 0.000000e+00 0.000000e+00
1
Step 538000
Ar -1.033709e+00 0.000000e+00 0.000000e+00
1
Step 539000
Ar -1.111070e+00 0.000000e+00 0.000000e+00
1
Step 540000
Ar -6.887340e-01 0.000000e+00 0.000000e+00
1
Step 541000
Ar -8.856495e-01 0.000000e+00 0.000000e+00
1
Step 542000
Ar -1.008958e+00 0.000000e+00 0.000000e+00
1
Step 543000
Ar -9.186263e-01 0.000000e+00 0.000000e+00
1
Step 544000
Ar -9.250556e-01 0.000000e+00 0.000000e+00
1
Step 545000
Ar -9.531544e-01 0.000000e+00 0.000000e+00
1
Step 546000
Ar -8.633721e-01 0.000000e+00 0.000000e+00
1
Step 547000
Ar -1.125896e+00 0.000000e+00 0.000000e+00
1
Step 548000
Ar -1.121916e+00 0.000000e+00 0.000000e+00
1
Step 549000
Ar -1.123555e+00 0.000000e+00 0.000000e+00
1
Step 550000
Ar -1.128157e+00 0.000000e+00 0.000000e+00
1
Step 551000
Ar -1.125750e+00 0.000000e+00 0.000000e+00
1
Step 552000
Ar -7.826389e-01 0.000000e+00 0.000000e+00
1
Step 553000
Ar -1.131590e+00 0.000000e+00 0.000000e+00
1
Step 554000
Ar -8.503303e-01 0.000000e+00 0.000000e+00
1
Step 555000
Ar -9.828566e-01 0.000000e+00 0.000000e+00
1
Step 556000
Ar -9.717569e-01 0.000000e+00 0.000000e+00
1
Step 557000
Ar -9.109585e-01 0.000000e+00 0.000000e+00
1
Step 558000
Ar -7.612223e-01 0.000000e+00 0.000000e+00
1
Step 559000
Ar -9.210007e-01 0.000000e+00 0.000000e+00
1
Step 560000
Ar -6.930789e-01 0.000000e+00 0.000000e+00
1
Step 561000
Ar -8.936089e-01 0.000000e+00 0.000000e+00
1
Step 562000
Ar -1.046252e+00 0.000000e+00 0.000000e+00
1
Step 563000
Ar -1.234917e+00 0.000000e+00 0.000000e+00
1
Step 564000
Ar -1.060876e+00 0.000000e+00 0.000000e+00
1
Step 565000
Ar -1.150016e+00 0.000000e+00 0.000000e+00
1
Step 566000
Ar -9.030548e-01 0.000000e+00 0.000000e+00
1
Step 567000
Ar -1.035750e+00 0.000000e+00 0.000000e+00
1
Step 568000
Ar -7.847085e-01 0.000000e+00 0.000000e+00
1
Step 569000
Ar -1.109977e+00 0.000000e+00 0.000000e+00
1
Step 570000
Ar -9.137150e-01 0.000000e+00 0.000000e+00
1
Step 571000
Ar -9.370124e-01 0.000000e+00 0.000000e+00
1
Step 572000
Ar -1.165428e+00 0.000000e+00 0.000000e+00
1
Step 573000
Ar -9.410664e-01 0.000000e+00 0.000000e+00
1
Step 574000
Ar -8.585339e-01 0.000000e+00 0.000000e+00
1
Step 575000
Ar -8.570133e-01 0.000000e+00 0.000000e+00
1
Step 576000
Ar -7.547754e-01 0.000000e+00 0.000000e+00
1
Step 577000
Ar -8.542265e-01 0.000000e+00 0.000000e+00
1
Step 578000
Ar -8.632815e-01 0.000000e+00 0.000000e+00
1
Step 579000
Ar -1.143074e+00 0.000000e+00 0.000000e+00
1
Step 580000
Ar -8.735872e-01 0.000000e+00 0.000000e+00
1
Step 581000
Ar -9.409196e-01 0.000000e+00 0.000000e+00
1
Step 582000
Ar -1.032119e+00 0.000000e+00 0.000000e+00
1
Step 583000
Ar -1.166630e+00 0.000000e+00 0.000000e+00
1
Step 584000
Ar -8.791732e-01 0.000000e+00 0.000000e+00
1
Step 585000
Ar -9.478717e-01 0.000000e+00 0.000000e+00
1
Step 586000
Ar -7.027516e-01 0.000000e+00 0.000000e+00
1
Step 587000
Ar -9.489371e-01 0.000000e+00 0.000000e+00
1
Step 588000
Ar -1.135119e+00 0.000000e+00 0.000000e+00
1
Step 589000
Ar -1.193855e+00 0.000000e+00 0.000000e+00
1
Step 590000
Ar -1.243563e+00 0.000000e+00 0.000000e+00
1
Step 591000
Ar -9.599786e-01 0.000000e+00 0.000000e+00
1
Step 592000
Ar -9.543138e-01 0.000000e+00 0.000000e+00
1
Step 593000
Ar -9.529637e-01 0.000000e+00 0.000000e+00
1
Step 594000
Ar -9.506148e-01 0.000000e+00 0.000000e+00
1
Step 595000
Ar -9.538091e-01 0.000000e+00 0.000000e+00
1
Step 596000
Ar -9.517596e-01 0.000000e+00 0.000000e+00
1
Step 597000
Ar -9.543005e-01 0.000000e+00 0.000000e+00
1
Step 598000
Ar -9.520422e-01 0.000000e+00 0.000000e+00
1
Step 599000
Ar -9.112524e-01 0.000000e+00 0.000000e+00
1
Step 600000
Ar -9.111116e-01 0.000000e+00 0.000000e+00
1
Step 601000
Ar -1.002980e+00 0.000000e+00 0.000000e+00
1
Step 602000
Ar -1.004931e+00 0.000000e+00 0.000000e+00
1
Step 603000
Ar -7.255261e-01 0.000000e+00 0.000000e+00
1
Step 604000
Ar -9.095707e-01 0.000000e+00 0.000000e+00
1
Step 605000
Ar -9.592295e-01 0.000000e+00 0.000000e+00
1
Step 606000
Ar -9.592825e-01 0.000000e+00 0.000000e+00
1
Step 607000
Ar -9.525302e-01 0.000000e+00 0.000000e+00
1
Step 608000
Ar -9.490987e-01 0.000000e+00 0.000000e+00
1
Step 609000
Ar -9.554199e-01 0.000000e+00 0.000000e+00
1
Step 610000
Ar -9.549197e-01 0.000000e+00 0.000000e+00
1
Step 611000
Ar -9.557878e-01 0.000000e+00 0.000000e+00
1
Step 612000
Ar -9.499424e-01 0.000000e+00 0.000000e+00
1
Step 613000
Ar -1.098093e+00 0.000000e+00 0.000000e+00
1
Step 614000
Ar -9.367080e-01 0.000000e+00 0.000000e+00
1
Step 615000
Ar -9.430337e-01 0.000000e+00 0.000000e+00
1
Step 616000
Ar -9.021766e-01 0.000000e+00 0.000000e+00
1
Step 617000
Ar -1.080340e+00 0.000000e+00 0.000000e+00
1
Step 618000
Ar -9.441914e-01 0.000000e+00 0.000000e+00
1
Step 619000
Ar -3.655322e-01 0.000000e+00 0.000000e+00
1
Step 620000
Ar -8.696280e-01 0.000000e+00 0.000000e+00
1
Step 621000
Ar -6.883905e-01 0.000000e+00 0.000000e+00
1
Step 622000
Ar -1.126931e+00 0.000000e+00 0.000000e+00
1
Step 623000
Ar -7.025625e-01 0.000000e+00 0.000000e+00
1
Step 624000
Ar -1.125656e+00 0.000000e+00 0.000000e+00
1
Step 625000
Ar -1.271846e+00 0.000000e+00 0.000000e+00
1
Step 626000
Ar -1.150721e+00 0.000000e+00 0.000000e+00
1
Step 627000
Ar -9.612554e-01 0.000000e+00 0.000000e+00
1
Step 628000
Ar -1.149809e+00 0.000000e+00 0.000000e+00
1
Step 629000
Ar -7.336100e-01 0.000000e+00 0.000000e+00
1
Step 630000
Ar -6.673809e-01 0.000000e+00 0.000000e+00
1
Step 631000
Ar -1.186923e+00 0.000000e+00 0.000000e+00
1
Step 632000
Ar -9.257447e-01 0.000000e+00 0.000000e+00
1
Step 633000
Ar -9.678088e-01 0.000000e+00 0.000000e+00
1
Step 634000
Ar -9.509017e-01 0.000000e+00 0.000000e+00
1
Step 635000
Ar -1.176101e+00 0.000000e+00 0.000000e+00
1
Step 636000
Ar -1.083267e+00 0.000000e+00 0.000000e+00
1
Step 637000
Ar -8.805684e-01 0.000000e+00 0.000000e+00
1
Step 638000
Ar -9.018696e-01 0.000000e+00 0.000000e+00
1
Step 639000
Ar -1.122202e+00 0.000000e+00 0.000000e+00
1
Step 640000
Ar -1.128792e+00 0.000000e+00 0.000000e+00
1
Step 641000
Ar -8.023264e-01 0.000000e+00 0.000000e+00
1
Step 642000
Ar -1.014244e+00 0.000000e+00 0.000000e+00
1
Step 643000
Ar -8.920438e-01 0.000000e+00 0.000000e+00
1
Step 644000
Ar -7.950861e-01 0.000000e+00 0.000000e+00
1
Step 645000
Ar -8.546253e-01 0.000000e+00 0.000000e+00
1
Step 646000
Ar -8.874567e-01 0.000000e+00 0.000000e+00
1
Step 647000
Ar -8.569796e-01 0.000000e+00 0.000000e+00
1
Step 648000
Ar -9.056466e-01 0.000000e+00 0.000000e+00
1
Step 649000