1
Step 120000
Ar 8.864891e-01 0.000000e+00 0.000000e+00
1
Step 121000
Ar 1.099192e+00 0.000000e+00 0.000000e+00
1
Step 122000
Ar 9.269497e-01 0.000000e+00 0.000000e+00
1
Step 123000
Ar 9.665866e-01 0.000000e+00 0.000000e+00
1
Step 124000
Ar 9.432858e-01 0.000000e+00 0.000000e+00
1
Step 125000
Ar 1.037278e+00 0.000000e+00 0.000000e+00
1
Step 126000
Ar 1.085414e+00 0.000000e+00 0.000000e+00
1
Step 127000
Ar 1.171907e+00 0.000000e+00 0.000000e+00
1
Step 128000
Ar 1.114484e+00 0.000000e+00 0.000000e+00
1
Step 129000
Ar 1.123983e+00 0.000000e+00 0.000000e+00
1
Step 130000
Ar 9.106362e-01 0.000000e+00 0.000000e+00
1
Step 131000
Ar 9.661419e-01 0.000000e+00 0.000000e+00
1
Step 132000
Ar 9.572032e-01 0.000000e+00 0.000000e+00
1
Step 133000
Ar 8.763608e-01 0.000000e+00 0.000000e+00
1
Step 134000
Ar 9.367543e-01 0.000000e+00 0.000000e+00
1
Step 135000
Ar 7.437748e-01 0.000000e+00 0.000000e+00
1
Step 136000
Ar 7.482786e-01 0.000000e+00 0.000000e+00
1
Step 137000
Ar 7.482528e-01 0.000000e+00 0.000000e+00
1
Step 138000
Ar 6.906190e-01 0.000000e+00 0.000000e+00
1
Step 139000
Ar 7.382126e-01 0.000000e+00 0.000000e+00
1
Step 140000
Ar 9.337887e-01 0.000000e+00 0.000000e+00
1
Step 141000
Ar 9.444988e-01 0.000000e+00 0.000000e+00
1
Step 142000
Ar 1.016538e+00 0.000000e+00 0.000000e+00
1
Step 143000
Ar 9.617949e-01 0.000000e+00 0.000000e+00
1
Step 144000
Ar 8.863820e-01 0.000000e+00 0.000000e+00
1
Step 145000
Ar 1.001301e+00 0.000000e+00 0.000000e+00
1
Step 146000
Ar 9.904476e-01 0.000000e+00 0.000000e+00
1
Step 147000
Ar 1.001989e+00 0.000000e+00 0.000000e+00
1
Step 148000
Ar 9.980494e-01 0.000000e+00 0.000000e+00
1
Step 149000
Ar 1.080651e+00 0.000000e+00 0.000000e+00
1
Step 150000
Ar 1.067490e+00 0.000000e+00 0.000000e+00
1
Step 151000
Ar 1.103844e+00 0.000000e+00 0.000000e+00
1
Step 152000
Ar 1.054214e+00 0.000000e+00 0.000000e+00
1
Step 153000
Ar 1.063770e+00 0.000000e+00 0.000000e+00
1
Step 154000
Ar 1.058294e+00 0.000000e+00 0.000000e+00
1
Step 155000
Ar 1.072099e+00 0.000000e+00 0.000000e+00
1
Step 156000
Ar 1.054711e+00 0.000000e+00 0.000000e+00
1
Step 157000
Ar 1.103338e+00 0.000000e+00 0.000000e+00
1
Step 158000
Ar 1.045078e+00 0.000000e+00 0.000000e+00
1
Step 159000
Ar 1.050392e+00 0.000000e+00 0.000000e+00
1
Step 160000
Ar 1.046899e+00 0.000000e+00 0.000000e+00
1
Step 161000
Ar 1.048613e+00 0.000000e+00 0.000000e+00
1
Step 162000
Ar 1.087824e+00 0.000000e+00 0.000000e+00
1
Step 163000
Ar 1.102301e+00 0.000000e+00 0.000000e+00
1
Step 164000
Ar 1.113822e+00 0.000000e+00 0.000000e+00
1
Step 165000
Ar 1.114918e+00 0.000000e+00 0.000000e+00
1
Step 166000
Ar 1.110808e+00 0.000000e+00 0.000000e+00
1
Step 167000
Ar 1.101609e+00 0.000000e+00 0.000000e+00
1
Step 168000
Ar 1.098761e+00 0.000000e+00 0.000000e+00
1
Step 169000
Ar 1.119810e+00 0.000000e+00 0.000000e+00
1
Step 170000
Ar 1.090906e+00 0.000000e+00 0.000000e+00
1
Step 171000
Ar 1.104231e+00 0.000000e+00 0.000000e+00
1
Step 172000
Ar 1.083572e+00 0.000000e+00 0.000000e+00
1
Step 173000
Ar 1.236413e+00 0.000000e+00 0.000000e+00
1
Step 174000
Ar 1.156133e+00 0.000000e+00 0.000000e+00
1
Step 175000
Ar 1.185494e+00 0.000000e+00 0.000000e+00
1
Step 176000
Ar 1.249011e+00 0.000000e+00 0.000000e+00
1
Step 177000
Ar 1.233139e+00 0.000000e+00 0.000000e+00
1
Step 178000
Ar 1.213453e+00 0.000000e+00 0.000000e+00
1
Step 179000
Ar 9.245970e-01 0.000000e+00 0.000000e+00
1
Step 180000
Ar 9.232027e-01 0.000000e+00 0.000000e+00
1
Step 181000
Ar 9.227401e-01 0.000000e+00 0.000000e+00
1
Step 182000
Ar 9.219837e-01 0.000000e+00 0.000000e+00
1
Step 183000
Ar 9.225364e-01 0.000000e+00 0.000000e+00
1
Step 184000
Ar 9.257462e-01 0.000000e+00 0.000000e+00
1
Step 185000
Ar 9.252844e-01 0.000000e+00 0.000000e+00
1
Step 186000
Ar 9.246049e-01 0.000000e+00 0.000000e+00
1
Step 187000
Ar 9.293985e-01 0.000000e+00 0.000000e+00
1
Step 188000
Ar 9.234074e-01 0.000000e+00 0.000000e+00
1
Step 189000
Ar 9.235319e-01 0.000000e+00 0.000000e+00
1
Step 190000
Ar 9.255587e-01 0.000000e+00 0.000000e+00
1
Step 191000
Ar 9.254665e-01 0.000000e+00 0.000000e+00
1
Step 192000
Ar 9.445465e-01 0.000000e+00 0.000000e+00
1
Step 193000
Ar 9.448637e-01 0.000000e+00 0.000000e+00
1
Step 194000
Ar 1.147390e+00 0.000000e+00 0.000000e+00
1
Step 195000
Ar 1.154239e+00 0.000000e+00 0.000000e+00
1
Step 196000
Ar 1.149225e+00 0.000000e+00 0.000000e+00
1
Step 197000
Ar 1.171262e+00 0.000000e+00 0.000000e+00
1
Step 198000
Ar 1.161353e+00 0.000000e+00 0.000000e+00
1
Step 199000
Ar 1.155633e+00 0.000000e+00 0.000000e+00
1
Step 200000
Ar 1.174038e+00 0.000000e+00 0.000000e+00
1
Step 201000
Ar 1.153111e+00 0.000000e+00 0.000000e+00
1
Step 202000
Ar 1.151387e+00 0.000000e+00 0.000000e+00
1
Step 203000
Ar 1.158036e+00 0.000000e+00 0.000000e+00
1
Step 204000
Ar 1.145931e+00 0.000000e+00 0.000000e+00
1
Step 205000
Ar 1.153325e+00 0.000000e+00 0.000000e+00
1
Step 206000
Ar 1.147657e+00 0.000000e+00 0.000000e+00
1
Step 207000
Ar 1.102923e+00 0.000000e+00 0.000000e+00
1
Step 208000
Ar 1.106410e+00 0.000000e+00 0.000000e+00
1
Step 209000
Ar 1.098585e+00 0.000000e+00 0.000000e+00
1
Step 210000
Ar 1.118585e+00 0.000000e+00 0.000000e+00
1
Step 211000
Ar 1.153164e+00 0.000000e+00 0.000000e+00
1
Step 212000
Ar 1.153146e+00 0.000000e+00 0.000000e+00
1
Step 213000
Ar 1.149168e+00 0.000000e+00 0.000000e+00
1
Step 214000
Ar 1.158925e+00 0.000000e+00 0.000000e+00
1
Step 215000
Ar 1.161214e+00 0.000000e+00 0.000000e+00
1
Step 216000
Ar 1.150247e+00 0.000000e+00 0.000000e+00
1
Step 217000
Ar 1.146891e+00 0.000000e+00 0.000000e+00
1
Step 218000
Ar 7.360158e-01 0.000000e+00 0.000000e+00
1
Step 219000
Ar 6.467769e-01 0.000000e+00 0.000000e+00
1
Step 220000
Ar 7.218070e-01 0.000000e+00 0.000000e+00
1
Step 221000
Ar 6.122828e-01 0.000000e+00 0.000000e+00
1
Step 222000
Ar 6.537773e-01 0.000000e+00 0.000000e+00
1
Step 223000
Ar 6.539095e-01 0.000000e+00 0.000000e+00
1
Step 224000
Ar 6.528072e-01 0.000000e+00 0.000000e+00
1
Step 225000
Ar 5.969879e-01 0.000000e+00 0.000000e+00
1
Step 226000
Ar 6.442181e-01 0.000000e+00 0.000000e+00
1
Step 227000
Ar 6.385923e-01 0.000000e+00 0.000000e+00
1
Step 228000
Ar 6.682650e-01 0.000000e+00 0.000000e+00
1
Step 229000
Ar 6.378001e-01 0.000000e+00 0.000000e+00
1
Step 230000
Ar 6.165846e-01 0.000000e+00 0.000000e+00
1
Step 231000
Ar 6.504037e-01 0.000000e+00 0.000000e+00
1
Step 232000
Ar 7.343548e-01 0.000000e+00 0.000000e+00
1
Step 233000
Ar 7.065856e-01 0.000000e+00 0.000000e+00
1
Step 234000
Ar 7.173152e-01 0.000000e+00 0.000000e+00
1
Step 235000
Ar 7.435399e-01 0.000000e+00 0.000000e+00
1
Step 236000
Ar 7.161479e-01 0.000000e+00 0.000000e+00
1
Step 237000
Ar 5.400293e-01 0.000000e+00 0.000000e+00
1
Step 238000
Ar 5.441915e-01 0.000000e+00 0.000000e+00
1
Step 239000
Ar 5.218479e-01 0.000000e+00 0.000000e+00
1
Step 240000
Ar 5.800671e-01 0.000000e+00 0.000000e+00
1
Step 241000
Ar 5.536792e-01 0.000000e+00 0.000000e+00
1
Step 242000
Ar 5.728521e-01 0.000000e+00 0.000000e+00
1
Step 243000
Ar 4.807987e-01 0.000000e+00 0.000000e+00
1
Step 244000
Ar 5.217856e-01 0.000000e+00 0.000000e+00
1
Step 245000
Ar 5.587951e-01 0.000000e+00 0.000000e+00
1
Step 246000
Ar 6.333048e-01 0.000000e+00 0.000000e+00
1
Step 247000
Ar 6.131351e-01 0.000000e+00 0.000000e+00
1
Step 248000
Ar 6.142375e-01 0.000000e+00 0.000000e+00
1
Step 249000
Ar 6.122071e-01 0.000000e+00 0.000000e+00
1
Step 250000
Ar 6.120942e-01 0.000000e+00 0.000000e+00
1
Step 251000
Ar 6.248229e-01 0.000000e+00 0.000000e+00
1
Step 252000
Ar 6.274389e-01 0.000000e+00 0.000000e+00
1
Step 253000
Ar 6.262068e-01 0.000000e+00 0.000000e+00
1
Step 254000
Ar 6.237446e-01 0.000000e+00 0.000000e+00
1
Step 255000
Ar 6.051525e-01 0.000000e+00 0.000000e+00
1
Step 256000
Ar 6.245303e-01 0.000000e+00 0.000000e+00
1
Step 257000
Ar 6.233496e-01 0.000000e+00 0.000000e+00
1
Step 258000
Ar 6.168134e-01 0.000000e+00 0.000000e+00
1
Step 259000
Ar 6.311518e-01 0.000000e+00 0.000000e+00
1
Step 260000
Ar 6.117247e-01 0.000000e+00 0.000000e+00
1
Step 261000
Ar 5.326543e-01 0.000000e+00 0.000000e+00
1
Step 262000
Ar 5.200261e-01 0.000000e+00 0.000000e+00
1
Step 263000
Ar 8.254004e-01 0.000000e+00 0.000000e+00
1
Step 264000
Ar 8.413618e-01 0.000000e+00 0.000000e+00
1
Step 265000
Ar 8.786696e-01 0.000000e+00 0.000000e+00
1
Step 266000
Ar 8.662983e-01 0.000000e+00 0.000000e+00
1
Step 267000
Ar 8.634425e-01 0.000000e+00 0.000000e+00
1
Step 268000
Ar 8.245536e-01 0.000000e+00 0.000000e+00
1
Step 269000
Ar 8.412124e-01 0.000000e+00 0.000000e+00
1
Step 270000
Ar 8.470447e-01 0.000000e+00 0.000000e+00
1
Step 271000
Ar 7.917455e-01 0.000000e+00 0.000000e+00
1
Step 272000
Ar 7.882892e-01 0.000000e+00 0.000000e+00
1
Step 273000
Ar 7.929575e-01 0.000000e+00 0.000000e+00
1
Step 274000
Ar 7.929471e-01 0.000000e+00 0.000000e+00
1
Step 275000
Ar 7.875836e-01 0.000000e+00 0.000000e+00
1
Step 276000
Ar 8.306250e-01 0.000000e+00 0.000000e+00
1
Step 277000
Ar 8.213055e-01 0.000000e+00 0.000000e+00
1
Step 278000
Ar 8.360416e-01 0.000000e+00 0.000000e+00
1
Step 279000
Ar 8.541763e-01 0.000000e+00 0.000000e+00
1
Step 280000
Ar 8.363558e-01 0.000000e+00 0.000000e+00
1
Step 281000
Ar 7.843374e-01 0.000000e+00 0.000000e+00
1
Step 282000
Ar 7.685951e-01 0.000000e+00 0.000000e+00
1
Step 283000
Ar 7.687678e-01 0.000000e+00 0.000000e+00
1
Step 284000
Ar 7.637884e-01 0.000000e+00 0.000000e+00
1
Step 285000
Ar 7.639194e-01 0.000000e+00 0.000000e+00
1
Step 286000
Ar 6.977136e-01 0.000000e+00 0.000000e+00
1
Step 287000
Ar 7.075795e-01 0.000000e+00 0.000000e+00
1
Step 288000
Ar 7.056885e-01 0.000000e+00 0.000000e+00
1
Step 289000
Ar 7.081170e-01 0.000000e+00 0.000000e+00
1
Step 290000
Ar 7.067100e-01 0.000000e+00 0.000000e+00
1
Step 291000
Ar 6.964834e-01 0.000000e+00 0.000000e+00
1
Step 292000
Ar 7.007586e-01 0.000000e+00 0.000000e+00
1
Step 293000
Ar 6.572753e-01 0.000000e+00 0.000000e+00
1
Step 294000
Ar 6.555877e-01 0.000000e+00 0.000000e+00
1
Step 295000
Ar 6.018266e-01 0.000000e+00 0.000000e+00
1
Step 296000
Ar 6.072347e-01 0.000000e+00 0.000000e+00
1
Step 297000
Ar 7.638408e-01 0.000000e+00 0.000000e+00
1
Step 298000
Ar 6.348584e-01 0.000000e+00 0.000000e+00
1
Step 299000
Ar 6.325937e-01 0.000000e+00 0.000000e+00
1
Step 300000
Ar 2.552498e-01 0.000000e+00 0.000000e+00
1
Step 301000
Ar 3.874002e-01 0.000000e+00 0.000000e+00
1
Step 302000
Ar -9.808609e-01 0.000000e+00 0.000000e+00
1
Step 303000
Ar -9.735763e-01 0.000000e+00 0.000000e+00
1
Step 304000
Ar -1.146300e+00 0.000000e+00 0.000000e+00
1
Step 305000
Ar -1.193399e+00 0.000000e+00 0.000000e+00
1
Step 306000
Ar -1.076834e+00 0.000000e+00 0.000000e+00
1
Step 307000
Ar -1.074511e+00 0.000000e+00 0.000000e+00
1
Step 308000
Ar -1.073042e+00 0.000000e+00 0.000000e+00
1
Step 309000
Ar -1.186466e+00 0.000000e+00 0.000000e+00
1
Step 310000
Ar -1.129774e+00 0.000000e+00 0.000000e+00
1
Step 311000
Ar -1.082001e+00 0.000000e+00 0.000000e+00
1
Step 312000
Ar -1.088318e+00 0.000000e+00 0.000000e+00
1
Step 313000
Ar -1.078112e+00 0.000000e+00 0.000000e+00
1
Step 314000
Ar -1.157203e+00 0.000000e+00 0.000000e+00
1
Step 315000
Ar -1.119864e+00 0.000000e+00 0.000000e+00
1
Step 316000
Ar -1.120546e+00 0.000000e+00 0.000000e+00
1
Step 317000
Ar -1.139744e+00 0.000000e+00 0.000000e+00
1
Step 318000
Ar -1.107398e+00 0.000000e+00 0.000000e+00
1
Step 319000
Ar -1.107412e+00 0.000000e+00 0.000000e+00
1
Step 320000
Ar -1.059592e+00 0.000000e+00 0.000000e+00
1
Step 321000
Ar -1.096956e+00 0.000000e+00 0.000000e+00
1
Step 322000
Ar -1.128973e+00 0.000000e+00 0.000000e+00
1
Step 323000
Ar -1.105837e+00 0.000000e+00 0.000000e+00
1
Step 324000
Ar -1.055085e+00 0.000000e+00 0.000000e+00
1
Step 325000
Ar -1.113981e+00 0.000000e+00 0.000000e+00
1
Step 326000
Ar -1.168788e+00 0.000000e+00 0.000000e+00
1
Step 327000
Ar -1.110915e+00 0.000000e+00 0.000000e+00
1
Step 328000
Ar -1.087436e+00 0.000000e+00 0.000000e+00
1
Step 329000
Ar -1.181064e+00 0.000000e+00 0.000000e+00
1
Step 330000
Ar -1.101474e+00 0.000000e+00 0.000000e+00
1
Step 331000
Ar -1.150107e+00 0.000000e+00 0.000000e+00
1
Step 332000
Ar -1.014517e+00 0.000000e+00 0.000000e+00
1
Step 333000
Ar -9.452708e-01 0.000000e+00 0.000000e+00
1
Step 334000
Ar -8.294270e-01 0.000000e+00 0.000000e+00
1
Step 335000
Ar -8.786847e-01 0.000000e+00 0.000000e+00
1
Step 336000
Ar -9.705967e-01 0.000000e+00 0.000000e+00
1
Step 337000
Ar -8.567426e-01 0.000000e+00 0.000000e+00
1
Step 338000
Ar -9.899739e-01 0.000000e+00 0.000000e+00
1
Step 339000
Ar -4.629865e-01 0.000000e+00 0.000000e+00
1
Step 340000
Ar -9.063094e-01 0.000000e+00 0.000000e+00
1
Step 341000
Ar -1.006899e+00 0.000000e+00 0.000000e+00
1
Step 342000
Ar -9.852159e-01 0.000000e+00 0.000000e+00
1
Step 343000
Ar -1.020591e+00 0.000000e+00 0.000000e+00
1
Step 344000
Ar -1.002240e+00 0.000000e+00 0.000000e+00
1
Step 345000
Ar -9.305928e-01 0.000000e+00 0.000000e+00
1
Step 346000
Ar -9.365286e-01 0.000000e+00 0.000000e+00
1
Step 347000
Ar -9.404442e-01 0.000000e+00 0.000000e+00
1
Step 348000
Ar -9.366475e-01 0.000000e+00 0.000000e+00
1
Step 349000
Ar -9.363264e-01 0.000000e+00 0.000000e+00
1
Step 350000
Ar -9.318681e-01 0.000000e+00 0.000000e+00
1
Step 351000
Ar -9.405166e-01 0.000000e+00 0.000000e+00
1
Step 352000
Ar -9.305577e-01 0.000000e+00 0.000000e+00
1
Step 353000
Ar -8.589611e-01 0.000000e+00 0.000000e+00
1
Step 354000
Ar -8.166186e-01 0.000000e+00 0.000000e+00
1
Step 355000
Ar -8.796526e-01 0.000000e+00 0.000000e+00
1
Step 356000
Ar -9.071400e-01 0.000000e+00 0.000000e+00
1
Step 357000
Ar -8.166091e-01 0.000000e+00 0.000000e+00
1
Step 358000
Ar -8.894842e-01 0.000000e+00 0.000000e+00
1
Step 359000
Ar -8.407537e-01 0.000000e+00 0.000000e+00
1
Step 360000
Ar -8.657410e-01 0.000000e+00 0.000000e+00
1
Step 361000
Ar -8.871813e-01 0.000000e+00 0.000000e+00
1
Step 362000
Ar -8.861874e-01 0.000000e+00 0.000000e+00
1
Step 363000
Ar -7.712683e-01 0.000000e+00 0.000000e+00
1
Step 364000
Ar -7.707372e-01 0.000000e+00 0.000000e+00
1
Step 365000
Ar -7.727786e-01 0.000000e+00 0.000000e+00
1
Step 366000
Ar -9.871275e-01 0.000000e+00 0.000000e+00
1
Step 367000
Ar -9.997808e-01 0.000000e+00 0.000000e+00
1
Step 368000
Ar -9.951370e-01 0.000000e+00 0.000000e+00
1
Step 369000
Ar -9.843924e-01 0.000000e+00 0.000000e+00
1
Step 370000
Ar -9.990205e-01 0.000000e+00 0.000000e+00
1
Step 371000
Ar -9.860618e-01 0.000000e+00 0.000000e+00
1
Step 372000
Ar -9.628756e-01 0.000000e+00 0.000000e+00
1
Step 373000
Ar -8.726485e-01 0.000000e+00 0.000000e+00
1
Step 374000
Ar -8.889028e-01 0.000000e+00 0.000000e+00
1
Step 375000
Ar -8.913498e-01 0.000000e+00 0.000000e+00
1
Step 376000
Ar -8.799393e-01 0.000000e+00 0.000000e+00
1
Step 377000
Ar -8.752990e-01 0.000000e+00 0.000000e+00
1
Step 378000
Ar -8.717279e-01 0.000000e+00 0.000000e+00
1
Step 379000
Ar -8.903750e-01 0.000000e+00 0.000000e+00
1
Step 380000
Ar -8.735452e-01 0.000000e+00 0.000000e+00
1
Step 381000
Ar -8.833864e-01 0.000000e+00 0.000000e+00
1
Step 382000
Ar -8.709194e-01 0.000000e+00 0.000000e+00
1
Step 383000
Ar -8.706369e-01 0.000000e+00 0.000000e+00
1
Step 384000
Ar -8.819386e-01 0.000000e+00 0.000000e+00
1
Step 385000
Ar -8.844922e-01 0.000000e+00 0.000000e+00
1
Step 386000
Ar -8.901610e-01 0.000000e+00 0.000000e+00
1
Step 387000
Ar -8.749792e-01 0.000000e+00 0.000000e+00
1
Step 388000
Ar -8.811611e-01 0.000000e+00 0.000000e+00
1
Step 389000
Ar -8.139257e-01 0.000000e+00 0.000000e+00
1
Step 390000
Ar -8.395601e-01 0.000000e+00 0.000000e+00
1
Step 391000
Ar -8.049786e-01 0.000000e+00 0.000000e+00
1
Step 392000
Ar -8.284152e-01 0.000000e+00 0.000000e+00
1
Step 393000
Ar -8.141941e-01 0.000000e+00 0.000000e+00
1
Step 394000
Ar -8.100495e-01 0.000000e+00 0.000000e+00
1
Step 395000
Ar -8.139550e-01 0.000000e+00 0.000000e+00
1
Step 396000
Ar -8.142527e-01 0.000000e+00 0.000000e+00
1
Step 397000
Ar -8.489410e-01 0.000000e+00 0.000000e+00
1
Step 398000
Ar -8.470594e-01 0.000000e+00 0.000000e+00
1
Step 399000
Ar -8.483279e-01 0.000000e+00 0.000000e+00
1
Step 400000
Ar -8.451773e-01 0.000000e+00 0.000000e+00
1
Step 401000
Ar -8.433517e-01 0.000000e+00 0.000000e+00
1
Step 402000
Ar -8.507118e-01 0.000000e+00 0.000000e+00
1
Step 403000
Ar -8.471805e-01 0.000000e+00 0.000000e+00
1
Step 404000
Ar -8.514871e-01 0.000000e+00 0.000000e+00
1
Step 405000
Ar -8.467673e-01 0.000000e+00 0.000000e+00
1
Step 406000
Ar -8.494233e-01 0.000000e+00 0.000000e+00
1
Step 407000
Ar -8.471005e-01 0.000000e+00 0.000000e+00
1
Step 408000
Ar -8.511161e-01 0.000000e+00 0.000000e+00
1
Step 409000
Ar -8.464572e-01 0.000000e+00 0.000000e+00
1
Step 410000
Ar -8.474124e-01 0.000000e+00 0.000000e+00
1
Step 411000
Ar -8.474863e-01 0.000000e+00 0.000000e+00
1
Step 412000
Ar -9.168820e-01 0.000000e+00 0.000000e+00
1
Step 413000
Ar -7.527263e-01 0.000000e+00 0.000000e+00
1
Step 414000
Ar -7.723467e-01 0.000000e+00 0.000000e+00
1
Step 415000
Ar -7.820207e-01 0.000000e+00 0.000000e+00
1
Step 416000
Ar -7.753153e-01 0.000000e+00 0.000000e+00
1
Step 417000
Ar -1.159435e+00 0.000000e+00 0.000000e+00
1
Step 418000
Ar -1.145117e+00 0.000000e+00 0.000000e+00
1
Step 419000
Ar -1.162356e+00 0.000000e+00 0.000000e+00
1
Step 420000
Ar -1.231837e+00 0.000000e+00 0.000000e+00
1
Step 421000
Ar -1.157652e+00 0.000000e+00 0.000000e+00
1
Step 422000
Ar -1.223451e+00 0.000000e+00 0.000000e+00
1
Step 423000
Ar -1.227659e+00 0.000000e+00 0.000000e+00
1
Step 424000
Ar -1.201570e+00 0.000000e+00 0.000000e+00
1
Step 425000
Ar -1.148457e+00 0.000000e+00 0.000000e+00
1
Step 426000
Ar -1.234815e+00 0.000000e+00 0.000000e+00
1
Step 427000
Ar -1.239983e+00 0.000000e+00 0.000000e+00
1
Step 428000
Ar -1.223822e+00 0.000000e+00 0.000000e+00
1
Step 429000
Ar -1.167310e+00 0.000000e+00 0.000000e+00
1
Step 430000
Ar -1.135806e+00 0.000000e+00 0.000000e+00
1
Step 431000
Ar -1.131374e+00 0.000000e+00 0.000000e+00
1
Step 432000
Ar -1.136021e+00 0.000000e+00 0.000000e+00
1
Step 433000
Ar -1.133223e+00 0.000000e+00 0.000000e+00
1
Step 434000
Ar -1.152439e+00 0.000000e+00 0.000000e+00
1
Step 435000
Ar -1.153621e+00 0.000000e+00 0.000000e+00
1
Step 436000
Ar -1.136980e+00 0.000000e+00 0.000000e+00
1
Step 437000
Ar -1.141209e+00 0.000000e+00 0.000000e+00
1
Step 438000
Ar -1.085463e+00 0.000000e+00 0.000000e+00
1
Step 439000
Ar -1.094980e+00 0.000000e+00 0.000000e+00
1
Step 440000
Ar -1.107152e+00 0.000000e+00 0.000000e+00
1
Step 441000
Ar -1.093624e+00 0.000000e+00 0.000000e+00
1
Step 442000
Ar -1.136272e+00 0.000000e+00 0.000000e+00
1
Step 443000
Ar -1.132043e+00 0.000000e+00 0.000000e+00
1
Step 444000
Ar -1.076804e+00 0.000000e+00 0.000000e+00
1
Step 445000
Ar -1.087454e+00 0.000000e+00 0.000000e+00
1
Step 446000
Ar -1.110280e+00 0.000000e+00 0.000000e+00
1
Step 447000
Ar -1.109665e+00 0.000000e+00 0.000000e+00
1
Step 448000
Ar -1.109167e+00 0.000000e+00 0.000000e+00
1
Step 449000
Ar -1.274226e+00 0.000000e+00 0.000000e+00
1
Step 450000
Ar -1.277686e+00 0.000000e+00 0.000000e+00
1
Step 451000
Ar -1.113938e+00 0.000000e+00 0.000000e+00
1
Step 452000
Ar -1.111192e+00 0.000000e+00 0.000000e+00
1
Step 453000
Ar -1.109183e+00 0.000000e+00 0.000000e+00
1
Step 454000
Ar -1.109010e+00 0.000000e+00 0.000000e+00
1
Step 455000
Ar -1.089574e+00 0.000000e+00 0.000000e+00
1
Step 456000
Ar -1.086575e+00 0.000000e+00 0.000000e+00
1
Step 457000
Ar -1.087673e+00 0.000000e+00 0.000000e+00
1
Step 458000
Ar -1.088349e+00 0.000000e+00 0.000000e+00
1
Step 459000
Ar -1.106223e+00 0.000000e+00 0.000000e+00
1
Step 460000
Ar -1.090648e+00 0.000000e+00 0.000000e+00
1
Step 461000
Ar -1.090694e+00 0.000000e+00 0.000000e+00
1
Step 462000
Ar -1.088718e+00 0.000000e+00 0.000000e+00
1
Step 463000
Ar -1.088188e+00 0.000000e+00 0.000000e+00
1
Step 464000
Ar -1.087656e+00 0.000000e+00 0.000000e+00
1
Step 465000
Ar -1.093550e+00 0.000000e+00 0.000000e+00
1
Step 466000
Ar -1.092237e+00 0.000000e+00 0.000000e+00
1
Step 467000
Ar -1.105108e+00 0.000000e+00 0.000000e+00
1
Step 468000
Ar -1.176966e+00 0.000000e+00 0.000000e+00
1
Step 469000
Ar -1.188756e+00 0.000000e+00 0.000000e+00
1
Step 470000
Ar -1.183474e+00 0.000000e+00 0.000000e+00
1
Step 471000
Ar -1.184954e+00 0.000000e+00 0.000000e+00
1
Step 472000
Ar -1.183669e+00 0.000000e+00 0.000000e+00
1
Step 473000
Ar -1.188926e+00 0.000000e+00 0.000000e+00
1
Step 474000
Ar -1.186522e+00 0.000000e+00 0.000000e+00
1
Step 475000
Ar -1.156777e+00 0.000000e+00 0.000000e+00
1
Step 476000
Ar -1.316537e+00 0.000000e+00 0.000000e+00
1
Step 477000
Ar -1.327939e+00 0.000000e+00 0.000000e+00
1
Step 478000
Ar -1.362668e+00 0.000000e+00 0.000000e+00
1
Step 479000
Ar -1.244194e+00 0.000000e+00 0.000000e+00
1
Step 480000
Ar -1.242988e+00 0.000000e+00 0.000000e+00
1
Step 481000
Ar -1.238253e+00 0.000000e+00 0.000000e+00
1
Step 482000
Ar -1.240277e+00 0.000000e+00 0.000000e+00
1
Step 483000
Ar -1.240941e+00 0.000000e+00 0.000000e+00
1
Step 484000
Ar -1.241455e+00 0.000000e+00 0.000000e+00
1
Step 485000
Ar -1.238894e+00 0.000000e+00 0.000000e+00
1
Step 486000
Ar -1.242023e+00 0.000000e+00 0.000000e+00
1
Step 487000
Ar -1.239120e+00 0.000000e+00 0.000000e+00
1
Step 488000
Ar -1.244152e+00 0.000000e+00 0.000000e+00
1
Step 489000
Ar -1.246516e+00 0.000000e+00 0.000000e+00
1
Step 490000
Ar -1.239277e+00 0.000000e+00 0.000000e+00
1
Step 491000
Ar -1.237107e+00 0.000000e+00 0.000000e+00
1
Step 492000
Ar -1.240106e+00 0.000000e+00 0.000000e+00
1
Step 493000
Ar -1.235913e+00 0.000000e+00 0.000000e+00
1
Step 494000
Ar -1.242546e+00 0.000000e+00 0.000000e+00
1
Step 495000
Ar -1.245849e+00 0.000000e+00 0.000000e+00
1
Step 496000
Ar -1.083054e+00 0.000000e+00 0.000000e+00
1
Step 497000
Ar -1.136401e+00 0.000000e+00 0.000000e+00
1
Step 498000
Ar -1.091793e+00 0.000000e+00 0.000000e+00
1
Step 499000
Ar -1.091783e+00 0.000000e+00 0.000000e+00
1
Step 500000
Ar -1.341746e+00 0.000000e+00 0.000000e+00
1
Step 501000
Ar -1.349505e+00 0.000000e+00 0.000000e+00
1
Step 502000
Ar -1.366298e+00 0.000000e+00 0.000000e+00
1
Step 503000
Ar -1.351033e+00 0.000000e+00 0.000000e+00
1
Step 504000
Ar -1.379191e+00 0.000000e+00 0.000000e+00
1
Step 505000
Ar -1.365482e+00 0.000000e+00 0.000000e+00
1
Step 506000
Ar -1.345676e+00 0.000000e+00 0.000000e+00
1
Step 507000
Ar -1.367072e+00 0.000000e+00 0.000000e+00
1
Step 508000
Ar -1.411111e+00 0.000000e+00 0.000000e+00
1
Step 509000
Ar -1.381005e+00 0.000000e+00 0.000000e+00
1
Step 510000
Ar -1.391321e+00 0.000000e+00 0.000000e+00
1
Step 511000
Ar -1.380957e+00 0.000000e+00 0.000000e+00
1
Step 512000
Ar -1.391818e+00 0.000000e+00 0.000000e+00
1
Step 513000
Ar -1.398721e+00 0.000000e+00 0.000000e+00
1
Step 514000
Ar -1.383950e+00 0.000000e+00 0.000000e+00
1
Step 515000
Ar -1.403576e+00 0.000000e+00 0.000000e+00
1
Step 516000
Ar -1.366651e+00 0.000000e+00 0.000000e+00
1
Step 517000
Ar -1.345830e+00 0.000000e+00 0.000000e+00
1
Step 518000
Ar 7.132632e-01 0.000000e+00 0.000000e+00
1
Step 519000
Ar 7.162639e-01 0.000000e+00 0.000000e+00
1
Step 520000
Ar 7.112100e-01 0.000000e+00 0.000000e+00
1
Step 521000
Ar 7.105328e-01 0.000000e+00 0.000000e+00
1
Step 522000
Ar -4.615077e-01 0.000000e+00 0.000000e+00
1
Step 523000
Ar -5.849631e-01 0.000000e+00 0.000000e+00
1
Step 524000
Ar -6.208628e-01 0.000000e+00 0.000000e+00
1
Step 525000
Ar -5.902700e-01 0.000000e+00 0.000000e+00
1
Step 526000
Ar -6.553659e-01 0.000000e+00 0.000000e+00
1
Step 527000
Ar -4.670445e-01 0.000000e+00 0.000000e+00
1
Step 528000
Ar -5.535289e-01 0.000000e+00 0.000000e+00
1
Step 529000
Ar -6.706825e-01 0.000000e+00 0.000000e+00
1
Step 530000
Ar -6.397066e-01 0.000000e+00 0.000000e+00
1
Step 531000
Ar -1.404085e+00 0.000000e+00 0.000000e+00
1
Step 532000
Ar -1.403667e+00 0.000000e+00 0.000000e+00
1
Step 533000
Ar -1.400409e+00 0.000000e+00 0.000000e+00
1
Step 534000
Ar -1.387049e+00 0.000000e+00 0.000000e+00
1
Step 535000
Ar -1.407390e+00 0.000000e+00 0.000000e+00
1
Step 536000
Ar -1.387233e+00 0.000000e+00 0.000000e+00
1
Step 537000
Ar -1.390202e+00 0.000000e+00 0.000000e+00
1
Step 538000
Ar -1.191463e+00 0.000000e+00 0.000000e+00
1
Step 539000
Ar -1.191093e+00 0.000000e+00 0.000000e+00
1
Step 540000
Ar -1.187514e+00 0.000000e+00 0.000000e+00
1
Step 541000
Ar -1.186582e+00 0.000000e+00 0.000000e+00
1
Step 542000
Ar -1.187361e+00 0.000000e+00 0.000000e+00
1
Step 543000
Ar -5.854042e-01 0.000000e+00 0.000000e+00
1
Step 544000
Ar -5.800732e-01 0.000000e+00 0.000000e+00
1
Step 545000
Ar -6.416292e-01 0.000000e+00 0.000000e+00
1
Step 546000
Ar -6.468926e-01 0.000000e+00 0.000000e+00
1
Step 547000
Ar -4.938999e-01 0.000000e+00 0.000000e+00
1
Step 548000
Ar -5.345594e-01 0.000000e+00 0.000000e+00
1
Step 549000
Ar -3.994781e-01 0.000000e+00 0.000000e+00
1
Step 550000
Ar -8.257922e-01 0.000000e+00 0.000000e+00
1
Step 551000
Ar -8.280990e-01 0.000000e+00 0.000000e+00
1
Step 552000
Ar -8.235361e-01 0.000000e+00 0.000000e+00
1
Step 553000
Ar -8.256178e-01 0.000000e+00 0.000000e+00
1
Step 554000
Ar -8.251210e-01 0.000000e+00 0.000000e+00
1
Step 555000
Ar -8.211498e-01 0.000000e+00 0.000000e+00
1
Step 556000
Ar -8.193189e-01 0.000000e+00 0.000000e+00
1
Step 557000
Ar -8.240090e-01 0.000000e+00 0.000000e+00
1
Step 558000
Ar -8.239656e-01 0.000000e+00 0.000000e+00
1
Step 559000
Ar -8.223716e-01 0.000000e+00 0.000000e+00
1
Step 560000
Ar -8.236168e-01 0.000000e+00 0.000000e+00
1
Step 561000
Ar -8.247074e-01 0.000000e+00 0.000000e+00
1
Step 562000
Ar -8.213595e-01 0.000000e+00 0.000000e+00
1
Step 563000
Ar -8.244005e-01 0.000000e+00 0.000000e+00
1
Step 564000
Ar -8.269121e-01 0.000000e+00 0.000000e+00
1
Step 565000
Ar -1.000294e+00 0.000000e+00 0.000000e+00
1
Step 566000
Ar 3.489925e-01 0.000000e+00 0.000000e+00
1
Step 567000
Ar -5.324380e-01 0.000000e+00 0.000000e+00
1
Step 568000
Ar -5.788136e-01 0.000000e+00 0.000000e+00
1
Step 569000
Ar -4.644191e-01 0.000000e+00 0.000000e+00
1
Step 570000
Ar -5.542326e-01 0.000000e+00 0.000000e+00
1
Step 571000
Ar 4.485685e-01 0.000000e+00 0.000000e+00
1
Step 572000
Ar 4.427103e-01 0.000000e+00 0.000000e+00
1
Step 573000
Ar 4.497677e-01 0.000000e+00 0.000000e+00
1
Step 574000
Ar 1.772949e-01 0.000000e+00 0.000000e+00
1
Step 575000
Ar 3.303612e-01 0.000000e+00 0.000000e+00
1
Step 576000
Ar 4.109779e-01 0.000000e+00 0.000000e+00
1
Step 577000
Ar -4.804828e-01 0.000000e+00 0.000000e+00
1
Step 578000
Ar -2.957070e-01 0.000000e+00 0.000000e+00
1
Step 579000
Ar -4.466104e-01 0.000000e+00 0.000000e+00
1
Step 580000
Ar -4.932134e-01 0.000000e+00 0.000000e+00
1
Step 581000
Ar -4.973695e-01 0.000000e+00 0.000000e+00
1
Step 582000
Ar -5.045650e-01 0.000000e+00 0.000000e+00
1
Step 583000
Ar -4.965058e-01 0.000000e+00 0.000000e+00
1
Step 584000
Ar -5.010199e-01 0.000000e+00 0.000000e+00
1
Step 585000
Ar -4.996398e-01 0.000000e+00 0.000000e+00
1
Step 586000
Ar -4.923462e-01 0.000000e+00 0.000000e+00
1
Step 587000
Ar -5.000841e-01 0.000000e+00 0.000000e+00
1
Step 588000
Ar -5.044032e-01 0.000000e+00 0.000000e+00
1
Step 589000
Ar 1.704582e-01 0.000000e+00 0.000000e+00
1
Step 590000
Ar 3.313302e-01 0.000000e+00 0.000000e+00
1
Step 591000
Ar -4.302683e-01 0.000000e+00 0.000000e+00
1
Step 592000
Ar -4.059780e-01 0.000000e+00 0.000000e+00
1
Step 593000
Ar -4.287943e-01 0.000000e+00 0.000000e+00
1
Step 594000
Ar -4.206439e-01 0.000000e+00 0.000000e+00
1
Step 595000
Ar -2.848944e-01 0.000000e+00 0.000000e+00
1
Step 596000
Ar -4.385853e-01 0.000000e+00 0.000000e+00
1
Step 597000
Ar -3.478412e-01 0.000000e+00 0.000000e+00
1
Step 598000
Ar -3.157031e-01 0.000000e+00 0.000000e+00
1
Step 599000
Ar -4.162150e-01 0.000000e+00 0.000000e+00
1
Step 600000
Ar -3.962870e-01 0.000000e+00 0.000000e+00
1
Step 601000
Ar -4.320219e-01 0.000000e+00 0.000000e+00
1
Step 602000
Ar -4.536213e-01 0.000000e+00 0.000000e+00
1
Step 603000
Ar -2.696035e-01 0.000000e+00 0.000000e+00
1
Step 604000
Ar -4.016231e-01 0.000000e+00 0.000000e+00
1
Step 605000
Ar 1.153290e-01 0.000000e+00 0.000000e+00
1
Step 606000
Ar 3.020899e-01 0.000000e+00 0.000000e+00
1
Step 607000
Ar 3.095293e-01 0.000000e+00 0.000000e+00
1
Step 608000
Ar -4.448822e-01 0.000000e+00 0.000000e+00
1
Step 609000
Ar -4.615481e-01 0.000000e+00 0.000000e+00
1
Step 610000
Ar -4.354745e-01 0.000000e+00 0.000000e+00
1
Step 611000
Ar -4.536601e-01 0.000000e+00 0.000000e+00
1
Step 612000
Ar -4.236320e-01 0.000000e+00 0.000000e+00
1
Step 613000
Ar -4.332180e-01 0.000000e+00 0.000000e+00
1
Step 614000
Ar -4.560171e-01 0.000000e+00 0.000000e+00
1
Step 615000
Ar -4.472928e-01 0.000000e+00 0.000000e+00
1
Step 616000
Ar -4.372387e-01 0.000000e+00 0.000000e+00
1
Step 617000
Ar -4.543276e-01 0.000000e+00 0.000000e+00
1
Step 618000
Ar -4.548905e-01 0.000000e+00 0.000000e+00
1
Step 619000
Ar -4.436768e-01 0.000000e+00 0.000000e+00
1
Step 620000
Ar -4.393821e-01 0.000000e+00 0.000000e+00
1
Step 621000
Ar -4.599228e-01 0.000000e+00 0.000000e+00
1
Step 622000
Ar -4.442981e-01 0.000000e+00 0.000000e+00
1
Step 623000
Ar -4.363274e-01 0.000000e+00 0.000000e+00
1
Step 624000
Ar -4.409748e-01 0.000000e+00 0.000000e+00
1
Step 625000
Ar -4.538710e-01 0.000000e+00 0.000000e+00
1
Step 626000
Ar -4.505065e-01 0.000000e+00 0.000000e+00
1
Step 627000
Ar -4.550761e-01 0.000000e+00 0.000000e+00
1
Step 628000
Ar -4.350311e-01 0.000000e+00 0.000000e+00
1
Step 629000
Ar -4.440308e-01 0.000000e+00 0.000000e+00
1
Step 630000
Ar -4.558460e-01 0.000000e+00 0.000000e+00
1
Step 631000
Ar -4.469122e-01 0.000000e+00 0.000000e+00
1
Step 632000
Ar -4.316631e-01 0.000000e+00 0.000000e+00
1
Step 633000
Ar -4.402258e-01 0.000000e+00 0.000000e+00
1
Step 634000
Ar -4.458087e-01 0.000000e+00 0.000000e+00
1
Step 635000
Ar -7.918267e-02 0.000000e+00 0.000000e+00
1
Step 636000
Ar -2.147455e-01 0.000000e+00 0.000000e+00
1
Step 637000
Ar -2.011989e-01 0.000000e+00 0.000000e+00
1
Step 638000
Ar -5.622862e-02 0.000000e+00 0.000000e+00
1
Step 639000
Ar 7.906911e-02 0.000000e+00 0.000000e+00
1
Step 640000
Ar 1.877890e-01 0.000000e+00 0.000000e+00
1
Step 641000
Ar -2.958736e-01 0.000000e+00 0.000000e+00
1
Step 642000
Ar -2.294920e-01 0.000000e+00 0.000000e+00
1
Step 643000
Ar 1.519641e-02 0.000000e+00 0.000000e+00
1
Step 644000
Ar 2.170852e-01 0.000000e+00 0.000000e+00
1
Step 645000
Ar -2.743163e-01 0.000000e+00 0.000000e+00
1
Step 646000
Ar -2.978848e-01 0.000000e+00 0.000000e+00
1
Step 647000
Ar 2.249872e-01 0.000000e+00 0.000000e+00
1
Step 648000
Ar 1.218931e-01 0.000000e+00 0.000000e+00
1
Step 649000