1
Step 120000
Ar 8.311224e-01 0.000000e+00 0.000000e+00
1
Step 121000
Ar 9.990390e-01 0.000000e+00 0.000000e+00
1
Step 122000
Ar 1.058729e+00 0.000000e+00 0.000000e+00
1
Step 123000
Ar 1.072306e+00 0.000000e+00 0.000000e+00
1
Step 124000
Ar 1.196360e+00 0.000000e+00 0.000000e+00
1
Step 125000
Ar 1.166696e+00 0.000000e+00 0.000000e+00
1
Step 126000
Ar 1.170203e+00 0.000000e+00 0.000000e+00
1
Step 127000
Ar 1.266694e+00 0.000000e+00 0.000000e+00
1
Step 128000
Ar 1.223101e+00 0.000000e+00 0.000000e+00
1
Step 129000
Ar 1.247146e+00 0.000000e+00 0.000000e+00
1
Step 130000
Ar 1.208842e+00 0.000000e+00 0.000000e+00
1
Step 131000
Ar 1.186811e+00 0.000000e+00 0.000000e+00
1
Step 132000
Ar 1.280501e+00 0.000000e+00 0.000000e+00
1
Step 133000
Ar 1.100071e+00 0.000000e+00 0.000000e+00
1
Step 134000
Ar 1.113972e+00 0.000000e+00 0.000000e+00
1
Step 135000
Ar 7.695297e-01 0.000000e+00 0.000000e+00
1
Step 136000
Ar 1.140824e+00 0.000000e+00 0.000000e+00
1
Step 137000
Ar 9.144108e-01 0.000000e+00 0.000000e+00
1
Step 138000
Ar 8.123212e-01 0.000000e+00 0.000000e+00
1
Step 139000
Ar 8.265592e-01 0.000000e+00 0.000000e+00
1
Step 140000
Ar 9.616315e-01 0.000000e+00 0.000000e+00
1
Step 141000
Ar 1.020878e+00 0.000000e+00 0.000000e+00
1
Step 142000
Ar 1.007608e+00 0.000000e+00 0.000000e+00
1
Step 143000
Ar 1.037997e+00 0.000000e+00 0.000000e+00
1
Step 144000
Ar 1.050063e+00 0.000000e+00 0.000000e+00
1
Step 145000
Ar 1.034365e+00 0.000000e+00 0.000000e+00
1
Step 146000
Ar 9.444357e-01 0.000000e+00 0.000000e+00
1
Step 147000
Ar 9.816257e-01 0.000000e+00 0.000000e+00
1
Step 148000
Ar 9.725454e-01 0.000000e+00 0.000000e+00
1
Step 149000
Ar 8.517222e-01 0.000000e+00 0.000000e+00
1
Step 150000
Ar 8.340405e-01 0.000000e+00 0.000000e+00
1
Step 151000
Ar 8.836437e-01 0.000000e+00 0.000000e+00
1
Step 152000
Ar 9.313436e-01 0.000000e+00 0.000000e+00
1
Step 153000
Ar 9.029926e-01 0.000000e+00 0.000000e+00
1
Step 154000
Ar 9.958874e-01 0.000000e+00 0.000000e+00
1
Step 155000
Ar 8.729108e-01 0.000000e+00 0.000000e+00
1
Step 156000
Ar 8.963960e-01 0.000000e+00 0.000000e+00
1
Step 157000
Ar 8.544595e-01 0.000000e+00 0.000000e+00
1
Step 158000
Ar 8.691044e-01 0.000000e+00 0.000000e+00
1
Step 159000
Ar 9.640249e-01 0.000000e+00 0.000000e+00
1
Step 160000
Ar 9.443963e-01 0.000000e+00 0.000000e+00
1
Step 161000
Ar 7.218739e-01 0.000000e+00 0.000000e+00
1
Step 162000
Ar 7.302028e-01 0.000000e+00 0.000000e+00
1
Step 163000
Ar 7.519951e-01 0.000000e+00 0.000000e+00
1
Step 164000
Ar 7.930000e-01 0.000000e+00 0.000000e+00
1
Step 165000
Ar 7.830332e-01 0.000000e+00 0.000000e+00
1
Step 166000
Ar 7.140804e-01 0.000000e+00 0.000000e+00
1
Step 167000
Ar 6.765269e-01 0.000000e+00 0.000000e+00
1
Step 168000
Ar 5.609377e-01 0.000000e+00 0.000000e+00
1
Step 169000
Ar 4.465495e-01 0.000000e+00 0.000000e+00
1
Step 170000
Ar 5.000600e-01 0.000000e+00 0.000000e+00
1
Step 171000
Ar 4.677265e-01 0.000000e+00 0.000000e+00
1
Step 172000
Ar 5.831869e-01 0.000000e+00 0.000000e+00
1
Step 173000
Ar 5.459055e-01 0.000000e+00 0.000000e+00
1
Step 174000
Ar 6.141547e-01 0.000000e+00 0.000000e+00
1
Step 175000
Ar 6.641815e-01 0.000000e+00 0.000000e+00
1
Step 176000
Ar 6.512724e-01 0.000000e+00 0.000000e+00
1
Step 177000
Ar 4.878391e-01 0.000000e+00 0.000000e+00
1
Step 178000
Ar 4.552594e-01 0.000000e+00 0.000000e+00
1
Step 179000
Ar 5.938245e-01 0.000000e+00 0.000000e+00
1
Step 180000
Ar 6.940752e-01 0.000000e+00 0.000000e+00
1
Step 181000
Ar 6.260163e-01 0.000000e+00 0.000000e+00
1
Step 182000
Ar 7.047530e-01 0.000000e+00 0.000000e+00
1
Step 183000
Ar 6.836337e-01 0.000000e+00 0.000000e+00
1
Step 184000
Ar 8.061291e-01 0.000000e+00 0.000000e+00
1
Step 185000
Ar 7.419599e-01 0.000000e+00 0.000000e+00
1
Step 186000
Ar 7.638909e-01 0.000000e+00 0.000000e+00
1
Step 187000
Ar 6.326382e-01 0.000000e+00 0.000000e+00
1
Step 188000
Ar 6.363531e-01 0.000000e+00 0.000000e+00
1
Step 189000
Ar 1.033011e+00 0.000000e+00 0.000000e+00
1
Step 190000
Ar 9.303914e-01 0.000000e+00 0.000000e+00
1
Step 191000
Ar 4.095487e-01 0.000000e+00 0.000000e+00
1
Step 192000
Ar 3.797830e-01 0.000000e+00 0.000000e+00
1
Step 193000
Ar 4.363130e-01 0.000000e+00 0.000000e+00
1
Step 194000
Ar 4.217032e-01 0.000000e+00 0.000000e+00
1
Step 195000
Ar 3.668020e-01 0.000000e+00 0.000000e+00
1
Step 196000
Ar 2.181780e-01 0.000000e+00 0.000000e+00
1
Step 197000
Ar -1.120250e+00 0.000000e+00 0.000000e+00
1
Step 198000
Ar -1.010557e+00 0.000000e+00 0.000000e+00
1
Step 199000
Ar -8.736531e-01 0.000000e+00 0.000000e+00
1
Step 200000
Ar -9.622726e-01 0.000000e+00 0.000000e+00
1
Step 201000
Ar -9.788360e-01 0.000000e+00 0.000000e+00
1
Step 202000
Ar -9.896144e-01 0.000000e+00 0.000000e+00
1
Step 203000
Ar -1.057621e+00 0.000000e+00 0.000000e+00
1
Step 204000
Ar -1.024577e+00 0.000000e+00 0.000000e+00
1
Step 205000
Ar -9.097656e-01 0.000000e+00 0.000000e+00
1
Step 206000
Ar -9.216555e-01 0.000000e+00 0.000000e+00
1
Step 207000
Ar -8.967934e-01 0.000000e+00 0.000000e+00
1
Step 208000
Ar -9.375850e-01 0.000000e+00 0.000000e+00
1
Step 209000
Ar -9.449297e-01 0.000000e+00 0.000000e+00
1
Step 210000
Ar -9.958324e-01 0.000000e+00 0.000000e+00
1
Step 211000
Ar -1.067404e+00 0.000000e+00 0.000000e+00
1
Step 212000
Ar -1.112214e+00 0.000000e+00 0.000000e+00
1
Step 213000
Ar -1.081254e+00 0.000000e+00 0.000000e+00
1
Step 214000
Ar -1.222056e+00 0.000000e+00 0.000000e+00
1
Step 215000
Ar -1.142737e+00 0.000000e+00 0.000000e+00
1
Step 216000
Ar -1.162716e+00 0.000000e+00 0.000000e+00
1
Step 217000
Ar -1.129976e+00 0.000000e+00 0.000000e+00
1
Step 218000
Ar -1.175518e+00 0.000000e+00 0.000000e+00
1
Step 219000
Ar -1.183889e+00 0.000000e+00 0.000000e+00
1
Step 220000
Ar -1.236416e+00 0.000000e+00 0.000000e+00
1
Step 221000
Ar -1.202284e+00 0.000000e+00 0.000000e+00
1
Step 222000
Ar -1.209655e+00 0.000000e+00 0.000000e+00
1
Step 223000
Ar -1.291007e+00 0.000000e+00 0.000000e+00
1
Step 224000
Ar -1.283764e+00 0.000000e+00 0.000000e+00
1
Step 225000
Ar -1.260261e+00 0.000000e+00 0.000000e+00
1
Step 226000
Ar -1.046277e+00 0.000000e+00 0.000000e+00
1
Step 227000
Ar -1.034142e+00 0.000000e+00 0.000000e+00
1
Step 228000
Ar -1.097316e+00 0.000000e+00 0.000000e+00
1
Step 229000
Ar -9.742026e-01 0.000000e+00 0.000000e+00
1
Step 230000
Ar -8.283710e-01 0.000000e+00 0.000000e+00
1
Step 231000
Ar -8.837187e-01 0.000000e+00 0.000000e+00
1
Step 232000
Ar -6.622696e-01 0.000000e+00 0.000000e+00
1
Step 233000
Ar -8.013219e-01 0.000000e+00 0.000000e+00
1
Step 234000
Ar -9.200265e-01 0.000000e+00 0.000000e+00
1
Step 235000
Ar -1.085385e+00 0.000000e+00 0.000000e+00
1
Step 236000
Ar -1.105786e+00 0.000000e+00 0.000000e+00
1
Step 237000
Ar -1.155163e+00 0.000000e+00 0.000000e+00
1
Step 238000
Ar -1.041227e+00 0.000000e+00 0.000000e+00
1
Step 239000
Ar -1.002391e+00 0.000000e+00 0.000000e+00
1
Step 240000
Ar -1.080180e+00 0.000000e+00 0.000000e+00
1
Step 241000
Ar -8.149964e-01 0.000000e+00 0.000000e+00
1
Step 242000
Ar -8.627199e-01 0.000000e+00 0.000000e+00
1
Step 243000
Ar -8.408202e-01 0.000000e+00 0.000000e+00
1
Step 244000
Ar -8.482536e-01 0.000000e+00 0.000000e+00
1
Step 245000
Ar -8.582154e-01 0.000000e+00 0.000000e+00
1
Step 246000
Ar -6.212551e-01 0.000000e+00 0.000000e+00
1
Step 247000
Ar -7.500522e-01 0.000000e+00 0.000000e+00
1
Step 248000
Ar -6.689181e-01 0.000000e+00 0.000000e+00
1
Step 249000
Ar -5.743859e-01 0.000000e+00 0.000000e+00
1
Step 250000
Ar -3.567297e-01 0.000000e+00 0.000000e+00
1
Step 251000
Ar 5.495691e-02 0.000000e+00 0.000000e+00
1
Step 252000
Ar 1.258317e-01 0.000000e+00 0.000000e+00
1
Step 253000
Ar 2.039794e-01 0.000000e+00 0.000000e+00
1
Step 254000
Ar 1.596019e-01 0.000000e+00 0.000000e+00
1
Step 255000
Ar 3.376834e-01 0.000000e+00 0.000000e+00
1
Step 256000
Ar 5.416247e-01 0.000000e+00 0.000000e+00
1
Step 257000
Ar 5.307012e-01 0.000000e+00 0.000000e+00
1
Step 258000
Ar 4.032377e-01 0.000000e+00 0.000000e+00
1
Step 259000
Ar 2.885630e-01 0.000000e+00 0.000000e+00
1
Step 260000
Ar 3.863652e-01 0.000000e+00 0.000000e+00
1
Step 261000
Ar 5.010420e-01 0.000000e+00 0.000000e+00
1
Step 262000
Ar 7.489987e-01 0.000000e+00 0.000000e+00
1
Step 263000
Ar 8.409575e-01 0.000000e+00 0.000000e+00
1
Step 264000
Ar 8.160946e-01 0.000000e+00 0.000000e+00
1
Step 265000
Ar 9.182911e-01 0.000000e+00 0.000000e+00
1
Step 266000
Ar 1.023992e+00 0.000000e+00 0.000000e+00
1
Step 267000
Ar 8.872302e-01 0.000000e+00 0.000000e+00
1
Step 268000
Ar 9.890554e-01 0.000000e+00 0.000000e+00
1
Step 269000
Ar 9.784781e-01 0.000000e+00 0.000000e+00
1
Step 270000
Ar 7.936355e-01 0.000000e+00 0.000000e+00
1
Step 271000
Ar 1.011928e+00 0.000000e+00 0.000000e+00
1
Step 272000
Ar 6.601189e-01 0.000000e+00 0.000000e+00
1
Step 273000
Ar 7.565036e-01 0.000000e+00 0.000000e+00
1
Step 274000
Ar 9.533865e-01 0.000000e+00 0.000000e+00
1
Step 275000
Ar 9.524659e-01 0.000000e+00 0.000000e+00
1
Step 276000
Ar 1.002743e+00 0.000000e+00 0.000000e+00
1
Step 277000
Ar 9.067958e-01 0.000000e+00 0.000000e+00
1
Step 278000
Ar 9.248214e-01 0.000000e+00 0.000000e+00
1
Step 279000
Ar 8.623511e-01 0.000000e+00 0.000000e+00
1
Step 280000
Ar 8.614847e-01 0.000000e+00 0.000000e+00
1
Step 281000
Ar 1.123608e+00 0.000000e+00 0.000000e+00
1
Step 282000
Ar 1.129332e+00 0.000000e+00 0.000000e+00
1
Step 283000
Ar 1.155713e+00 0.000000e+00 0.000000e+00
1
Step 284000
Ar 1.159099e+00 0.000000e+00 0.000000e+00
1
Step 285000
Ar 1.315598e+00 0.000000e+00 0.000000e+00
1
Step 286000
Ar 1.276113e+00 0.000000e+00 0.000000e+00
1
Step 287000
Ar 1.178633e+00 0.000000e+00 0.000000e+00
1
Step 288000
Ar 1.230689e+00 0.000000e+00 0.000000e+00
1
Step 289000
Ar 1.204278e+00 0.000000e+00 0.000000e+00
1
Step 290000
Ar 1.085277e+00 0.000000e+00 0.000000e+00
1
Step 291000
Ar 1.071919e+00 0.000000e+00 0.000000e+00
1
Step 292000
Ar 1.080211e+00 0.000000e+00 0.000000e+00
1
Step 293000
Ar 1.109397e+00 0.000000e+00 0.000000e+00
1
Step 294000
Ar 1.099325e+00 0.000000e+00 0.000000e+00
1
Step 295000
Ar 1.095948e+00 0.000000e+00 0.000000e+00
1
Step 296000
Ar 1.044658e+00 0.000000e+00 0.000000e+00
1
Step 297000
Ar 1.058049e+00 0.000000e+00 0.000000e+00
1
Step 298000
Ar 1.064519e+00 0.000000e+00 0.000000e+00
1
Step 299000
Ar 9.743812e-01 0.000000e+00 0.000000e+00
1
Step 300000
Ar 7.830599e-01 0.000000e+00 0.000000e+00
1
Step 301000
Ar 8.323043e-01 0.000000e+00 0.000000e+00
1
Step 302000
Ar 7.741228e-01 0.000000e+00 0.000000e+00
1
Step 303000
Ar 8.206891e-01 0.000000e+00 0.000000e+00
1
Step 304000
Ar 8.428775e-01 0.000000e+00 0.000000e+00
1
Step 305000
Ar 8.803028e-01 0.000000e+00 0.000000e+00
1
Step 306000
Ar 8.014314e-01 0.000000e+00 0.000000e+00
1
Step 307000
Ar 1.173055e+00 0.000000e+00 0.000000e+00
1
Step 308000
Ar 1.335553e+00 0.000000e+00 0.000000e+00
1
Step 309000
Ar 1.293922e+00 0.000000e+00 0.000000e+00
1
Step 310000
Ar 1.305441e+00 0.000000e+00 0.000000e+00
1
Step 311000
Ar 1.387356e+00 0.000000e+00 0.000000e+00
1
Step 312000
Ar 1.398955e+00 0.000000e+00 0.000000e+00
1
Step 313000
Ar 1.252671e+00 0.000000e+00 0.000000e+00
1
Step 314000
Ar 1.238498e+00 0.000000e+00 0.000000e+00
1
Step 315000
Ar 1.206991e+00 0.000000e+00 0.000000e+00
1
Step 316000
Ar 1.318091e+00 0.000000e+00 0.000000e+00
1
Step 317000
Ar 1.373526e+00 0.000000e+00 0.000000e+00
1
Step 318000
Ar 1.359053e+00 0.000000e+00 0.000000e+00
1
Step 319000
Ar 1.326858e+00 0.000000e+00 0.000000e+00
1
Step 320000
Ar 1.349929e+00 0.000000e+00 0.000000e+00
1
Step 321000
Ar 1.425426e+00 0.000000e+00 0.000000e+00
1
Step 322000
Ar 1.346977e+00 0.000000e+00 0.000000e+00
1
Step 323000
Ar 8.925734e-01 0.000000e+00 0.000000e+00
1
Step 324000
Ar 9.402158e-01 0.000000e+00 0.000000e+00
1
Step 325000
Ar 7.320356e-01 0.000000e+00 0.000000e+00
1
Step 326000
Ar 6.447954e-01 0.000000e+00 0.000000e+00
1
Step 327000
Ar 6.964091e-01 0.000000e+00 0.000000e+00
1
Step 328000
Ar 6.680594e-01 0.000000e+00 0.000000e+00
1
Step 329000
Ar 7.382587e-01 0.000000e+00 0.000000e+00
1
Step 330000
Ar 6.763096e-01 0.000000e+00 0.000000e+00
1
Step 331000
Ar 9.150729e-01 0.000000e+00 0.000000e+00
1
Step 332000
Ar 1.043616e+00 0.000000e+00 0.000000e+00
1
Step 333000
Ar 1.087283e+00 0.000000e+00 0.000000e+00
1
Step 334000
Ar 1.057629e+00 0.000000e+00 0.000000e+00
1
Step 335000
Ar 9.349869e-01 0.000000e+00 0.000000e+00
1
Step 336000
Ar 1.049038e+00 0.000000e+00 0.000000e+00
1
Step 337000
Ar 8.582569e-01 0.000000e+00 0.000000e+00
1
Step 338000
Ar -2.877826e-01 0.000000e+00 0.000000e+00
1
Step 339000
Ar -2.374754e-01 0.000000e+00 0.000000e+00
1
Step 340000
Ar -5.567296e-01 0.000000e+00 0.000000e+00
1
Step 341000
Ar -5.358229e-01 0.000000e+00 0.000000e+00
1
Step 342000
Ar -7.693097e-01 0.000000e+00 0.000000e+00
1
Step 343000
Ar -7.102149e-01 0.000000e+00 0.000000e+00
1
Step 344000
Ar -8.175304e-01 0.000000e+00 0.000000e+00
1
Step 345000
Ar -7.268425e-01 0.000000e+00 0.000000e+00
1
Step 346000
Ar -7.375175e-01 0.000000e+00 0.000000e+00
1
Step 347000
Ar -7.786094e-01 0.000000e+00 0.000000e+00
1
Step 348000
Ar -7.891017e-01 0.000000e+00 0.000000e+00
1
Step 349000
Ar -6.829019e-01 0.000000e+00 0.000000e+00
1
Step 350000
Ar -7.027803e-01 0.000000e+00 0.000000e+00
1
Step 351000
Ar -6.938474e-01 0.000000e+00 0.000000e+00
1
Step 352000
Ar -8.071154e-01 0.000000e+00 0.000000e+00
1
Step 353000
Ar -7.627153e-01 0.000000e+00 0.000000e+00
1
Step 354000
Ar -6.049347e-01 0.000000e+00 0.000000e+00
1
Step 355000
Ar -6.448823e-01 0.000000e+00 0.000000e+00
1
Step 356000
Ar -5.630852e-01 0.000000e+00 0.000000e+00
1
Step 357000
Ar -5.875230e-01 0.000000e+00 0.000000e+00
1
Step 358000
Ar -7.213858e-01 0.000000e+00 0.000000e+00
1
Step 359000
Ar -5.244875e-01 0.000000e+00 0.000000e+00
1
Step 360000
Ar -4.905112e-01 0.000000e+00 0.000000e+00
1
Step 361000
Ar -6.848599e-01 0.000000e+00 0.000000e+00
1
Step 362000
Ar -5.963402e-01 0.000000e+00 0.000000e+00
1
Step 363000
Ar -6.286701e-01 0.000000e+00 0.000000e+00
1
Step 364000
Ar -6.345650e-01 0.000000e+00 0.000000e+00
1
Step 365000
Ar -5.851463e-01 0.000000e+00 0.000000e+00
1
Step 366000
Ar -5.069613e-01 0.000000e+00 0.000000e+00
1
Step 367000
Ar -4.744065e-01 0.000000e+00 0.000000e+00
1
Step 368000
Ar -4.504753e-01 0.000000e+00 0.000000e+00
1
Step 369000
Ar -1.021016e-01 0.000000e+00 0.000000e+00
1
Step 370000
Ar 2.762025e-02 0.000000e+00 0.000000e+00
1
Step 371000
Ar -2.991170e-03 0.000000e+00 0.000000e+00
1
Step 372000
Ar -8.210208e-02 0.000000e+00 0.000000e+00
1
Step 373000
Ar -9.074895e-02 0.000000e+00 0.000000e+00
1
Step 374000
Ar -2.038665e-01 0.000000e+00 0.000000e+00
1
Step 375000
Ar -2.566527e-01 0.000000e+00 0.000000e+00
1
Step 376000
Ar -3.465575e-01 0.000000e+00 0.000000e+00
1
Step 377000
Ar -3.047202e-01 0.000000e+00 0.000000e+00
1
Step 378000
Ar -3.237545e-01 0.000000e+00 0.000000e+00
1
Step 379000
Ar -4.024930e-01 0.000000e+00 0.000000e+00
1
Step 380000
Ar -4.642408e-01 0.000000e+00 0.000000e+00
1
Step 381000
Ar -1.074417e+00 0.000000e+00 0.000000e+00
1
Step 382000
Ar -9.338262e-01 0.000000e+00 0.000000e+00
1
Step 383000
Ar -6.156548e-01 0.000000e+00 0.000000e+00
1
Step 384000
Ar -7.512461e-01 0.000000e+00 0.000000e+00
1
Step 385000
Ar -1.014924e+00 0.000000e+00 0.000000e+00
1
Step 386000
Ar -1.056045e+00 0.000000e+00 0.000000e+00
1
Step 387000
Ar -9.504466e-01 0.000000e+00 0.000000e+00
1
Step 388000
Ar -9.639322e-01 0.000000e+00 0.000000e+00
1
Step 389000
Ar -9.836957e-01 0.000000e+00 0.000000e+00
1
Step 390000
Ar -1.024645e+00 0.000000e+00 0.000000e+00
1
Step 391000
Ar -1.005297e+00 0.000000e+00 0.000000e+00
1
Step 392000
Ar -1.033163e+00 0.000000e+00 0.000000e+00
1
Step 393000
Ar -1.068676e+00 0.000000e+00 0.000000e+00
1
Step 394000
Ar -7.870487e-01 0.000000e+00 0.000000e+00
1
Step 395000
Ar -7.727815e-01 0.000000e+00 0.000000e+00
1
Step 396000
Ar -9.065218e-01 0.000000e+00 0.000000e+00
1
Step 397000
Ar -8.899141e-01 0.000000e+00 0.000000e+00
1
Step 398000
Ar -8.445898e-01 0.000000e+00 0.000000e+00
1
Step 399000
Ar -9.533194e-01 0.000000e+00 0.000000e+00
1
Step 400000
Ar -8.764818e-01 0.000000e+00 0.000000e+00
1
Step 401000
Ar -8.497457e-01 0.000000e+00 0.000000e+00
1
Step 402000
Ar -8.863735e-01 0.000000e+00 0.000000e+00
1
Step 403000
Ar -8.976327e-01 0.000000e+00 0.000000e+00
1
Step 404000
Ar -9.248690e-01 0.000000e+00 0.000000e+00
1
Step 405000
Ar -9.299884e-01 0.000000e+00 0.000000e+00
1
Step 406000
Ar -1.048999e+00 0.000000e+00 0.000000e+00
1
Step 407000
Ar -9.935296e-01 0.000000e+00 0.000000e+00
1
Step 408000
Ar -1.018589e+00 0.000000e+00 0.000000e+00
1
Step 409000
Ar -9.459904e-01 0.000000e+00 0.000000e+00
1
Step 410000
Ar -9.060111e-01 0.000000e+00 0.000000e+00
1
Step 411000
Ar -9.426666e-01 0.000000e+00 0.000000e+00
1
Step 412000
Ar -1.312303e+00 0.000000e+00 0.000000e+00
1
Step 413000
Ar -1.304312e+00 0.000000e+00 0.000000e+00
1
Step 414000
Ar -1.241093e+00 0.000000e+00 0.000000e+00
1
Step 415000
Ar -1.341347e+00 0.000000e+00 0.000000e+00
1
Step 416000
Ar -1.328100e+00 0.000000e+00 0.000000e+00
1
Step 417000
Ar -1.366990e+00 0.000000e+00 0.000000e+00
1
Step 418000
Ar -1.348049e+00 0.000000e+00 0.000000e+00
1
Step 419000
Ar -1.408884e+00 0.000000e+00 0.000000e+00
1
Step 420000
Ar -1.170770e+00 0.000000e+00 0.000000e+00
1
Step 421000
Ar -1.147072e+00 0.000000e+00 0.000000e+00
1
Step 422000
Ar -1.321016e+00 0.000000e+00 0.000000e+00
1
Step 423000
Ar -1.190134e+00 0.000000e+00 0.000000e+00
1
Step 424000
Ar -1.225632e+00 0.000000e+00 0.000000e+00
1
Step 425000
Ar -1.104588e+00 0.000000e+00 0.000000e+00
1
Step 426000
Ar -1.093894e+00 0.000000e+00 0.000000e+00
1
Step 427000
Ar -1.195263e+00 0.000000e+00 0.000000e+00
1
Step 428000
Ar -1.271297e+00 0.000000e+00 0.000000e+00
1
Step 429000
Ar -1.210865e+00 0.000000e+00 0.000000e+00
1
Step 430000
Ar -1.250461e+00 0.000000e+00 0.000000e+00
1
Step 431000
Ar -1.253397e+00 0.000000e+00 0.000000e+00
1
Step 432000
Ar -1.271810e+00 0.000000e+00 0.000000e+00
1
Step 433000
Ar -1.139378e+00 0.000000e+00 0.000000e+00
1
Step 434000
Ar -1.129621e+00 0.000000e+00 0.000000e+00
1
Step 435000
Ar -1.118186e+00 0.000000e+00 0.000000e+00
1
Step 436000
Ar -1.154970e+00 0.000000e+00 0.000000e+00
1
Step 437000
Ar -1.354457e+00 0.000000e+00 0.000000e+00
1
Step 438000
Ar -1.386944e+00 0.000000e+00 0.000000e+00
1
Step 439000
Ar -1.396433e+00 0.000000e+00 0.000000e+00
1
Step 440000
Ar -1.066845e+00 0.000000e+00 0.000000e+00
1
Step 441000
Ar -1.058477e+00 0.000000e+00 0.000000e+00
1
Step 442000
Ar -9.669081e-01 0.000000e+00 0.000000e+00
1
Step 443000
Ar -9.835134e-01 0.000000e+00 0.000000e+00
1
Step 444000
Ar -1.038711e+00 0.000000e+00 0.000000e+00
1
Step 445000
Ar -1.006221e+00 0.000000e+00 0.000000e+00
1
Step 446000
Ar -9.949817e-01 0.000000e+00 0.000000e+00
1
Step 447000
Ar -9.727879e-01 0.000000e+00 0.000000e+00
1
Step 448000
Ar -8.662301e-01 0.000000e+00 0.000000e+00
1
Step 449000
Ar -8.699262e-01 0.000000e+00 0.000000e+00
1
Step 450000
Ar -6.520095e-01 0.000000e+00 0.000000e+00
1
Step 451000
Ar -7.218340e-01 0.000000e+00 0.000000e+00
1
Step 452000
Ar -7.152635e-01 0.000000e+00 0.000000e+00
1
Step 453000
Ar -6.733331e-01 0.000000e+00 0.000000e+00
1
Step 454000
Ar -6.449845e-01 0.000000e+00 0.000000e+00
1
Step 455000
Ar -4.406870e-01 0.000000e+00 0.000000e+00
1
Step 456000
Ar -4.162526e-01 0.000000e+00 0.000000e+00
1
Step 457000
Ar -3.871790e-01 0.000000e+00 0.000000e+00
1
Step 458000
Ar -4.286547e-01 0.000000e+00 0.000000e+00
1
Step 459000
Ar -3.733345e-01 0.000000e+00 0.000000e+00
1
Step 460000
Ar -5.696364e-01 0.000000e+00 0.000000e+00
1
Step 461000
Ar -6.937780e-01 0.000000e+00 0.000000e+00
1
Step 462000
Ar -7.064507e-01 0.000000e+00 0.000000e+00
1
Step 463000
Ar -6.609000e-01 0.000000e+00 0.000000e+00
1
Step 464000
Ar -3.331654e-01 0.000000e+00 0.000000e+00
1
Step 465000
Ar -5.432317e-01 0.000000e+00 0.000000e+00
1
Step 466000
Ar -5.191053e-01 0.000000e+00 0.000000e+00
1
Step 467000
Ar -4.958723e-01 0.000000e+00 0.000000e+00
1
Step 468000
Ar -5.447367e-01 0.000000e+00 0.000000e+00
1
Step 469000
Ar -2.237408e-01 0.000000e+00 0.000000e+00
1
Step 470000
Ar -4.732741e-01 0.000000e+00 0.000000e+00
1
Step 471000
Ar -1.181099e-01 0.000000e+00 0.000000e+00
1
Step 472000
Ar -1.397069e-01 0.000000e+00 0.000000e+00
1
Step 473000
Ar -3.107828e-01 0.000000e+00 0.000000e+00
1
Step 474000
Ar -4.094930e-01 0.000000e+00 0.000000e+00
1
Step 475000
Ar -4.347804e-01 0.000000e+00 0.000000e+00
1
Step 476000
Ar -5.075005e-01 0.000000e+00 0.000000e+00
1
Step 477000
Ar -6.141500e-01 0.000000e+00 0.000000e+00
1
Step 478000
Ar -6.281467e-01 0.000000e+00 0.000000e+00
1
Step 479000
Ar -8.845800e-01 0.000000e+00 0.000000e+00
1
Step 480000
Ar -6.536313e-01 0.000000e+00 0.000000e+00
1
Step 481000
Ar -6.740463e-01 0.000000e+00 0.000000e+00
1
Step 482000
Ar -7.382957e-01 0.000000e+00 0.000000e+00
1
Step 483000
Ar -7.637990e-01 0.000000e+00 0.000000e+00
1
Step 484000
Ar -7.346896e-01 0.000000e+00 0.000000e+00
1
Step 485000
Ar -8.318868e-01 0.000000e+00 0.000000e+00
1
Step 486000
Ar -7.950045e-01 0.000000e+00 0.000000e+00
1
Step 487000
Ar -8.339789e-01 0.000000e+00 0.000000e+00
1
Step 488000
Ar -7.958016e-01 0.000000e+00 0.000000e+00
1
Step 489000
Ar -8.044503e-01 0.000000e+00 0.000000e+00
1
Step 490000
Ar -8.201439e-01 0.000000e+00 0.000000e+00
1
Step 491000
Ar -7.452064e-01 0.000000e+00 0.000000e+00
1
Step 492000
Ar -7.596856e-01 0.000000e+00 0.000000e+00
1
Step 493000
Ar -6.866610e-01 0.000000e+00 0.000000e+00
1
Step 494000
Ar -7.281668e-01 0.000000e+00 0.000000e+00
1
Step 495000
Ar -9.125995e-01 0.000000e+00 0.000000e+00
1
Step 496000
Ar -9.286724e-01 0.000000e+00 0.000000e+00
1
Step 497000
Ar -1.228946e+00 0.000000e+00 0.000000e+00
1
Step 498000
Ar -1.299548e+00 0.000000e+00 0.000000e+00
1
Step 499000
Ar -1.285811e+00 0.000000e+00 0.000000e+00
1
Step 500000
Ar -1.185023e+00 0.000000e+00 0.000000e+00
1
Step 501000
Ar -1.095572e+00 0.000000e+00 0.000000e+00
1
Step 502000
Ar -1.260677e+00 0.000000e+00 0.000000e+00
1
Step 503000
Ar -1.237238e+00 0.000000e+00 0.000000e+00
1
Step 504000
Ar -1.429117e+00 0.000000e+00 0.000000e+00
1
Step 505000
Ar -1.440147e+00 0.000000e+00 0.000000e+00
1
Step 506000
Ar -1.378453e+00 0.000000e+00 0.000000e+00
1
Step 507000
Ar -1.332052e+00 0.000000e+00 0.000000e+00
1
Step 508000
Ar -1.422474e+00 0.000000e+00 0.000000e+00
1
Step 509000
Ar -1.341548e+00 0.000000e+00 0.000000e+00
1
Step 510000
Ar -1.242786e+00 0.000000e+00 0.000000e+00
1
Step 511000
Ar -1.311565e+00 0.000000e+00 0.000000e+00
1
Step 512000
Ar -1.279600e+00 0.000000e+00 0.000000e+00
1
Step 513000
Ar -1.293801e+00 0.000000e+00 0.000000e+00
1
Step 514000
Ar -1.304735e+00 0.000000e+00 0.000000e+00
1
Step 515000
Ar -1.367761e+00 0.000000e+00 0.000000e+00
1
Step 516000
Ar -1.405114e+00 0.000000e+00 0.000000e+00
1
Step 517000
Ar -1.459352e+00 0.000000e+00 0.000000e+00
1
Step 518000
Ar -1.392943e+00 0.000000e+00 0.000000e+00
1
Step 519000
Ar -1.357559e+00 0.000000e+00 0.000000e+00
1
Step 520000
Ar -1.382690e+00 0.000000e+00 0.000000e+00
1
Step 521000
Ar -1.173958e+00 0.000000e+00 0.000000e+00
1
Step 522000
Ar -1.154392e+00 0.000000e+00 0.000000e+00
1
Step 523000
Ar -1.136758e+00 0.000000e+00 0.000000e+00
1
Step 524000
Ar -1.112164e+00 0.000000e+00 0.000000e+00
1
Step 525000
Ar -1.122708e+00 0.000000e+00 0.000000e+00
1
Step 526000
Ar -1.088768e+00 0.000000e+00 0.000000e+00
1
Step 527000
Ar -1.025431e+00 0.000000e+00 0.000000e+00
1
Step 528000
Ar -7.800652e-01 0.000000e+00 0.000000e+00
1
Step 529000
Ar -8.570702e-01 0.000000e+00 0.000000e+00
1
Step 530000
Ar -9.551164e-01 0.000000e+00 0.000000e+00
1
Step 531000
Ar -9.875349e-01 0.000000e+00 0.000000e+00
1
Step 532000
Ar -1.206721e+00 0.000000e+00 0.000000e+00
1
Step 533000
Ar -1.140301e+00 0.000000e+00 0.000000e+00
1
Step 534000
Ar -1.077323e+00 0.000000e+00 0.000000e+00
1
Step 535000
Ar -1.049971e+00 0.000000e+00 0.000000e+00
1
Step 536000
Ar -1.075104e+00 0.000000e+00 0.000000e+00
1
Step 537000
Ar -1.215577e+00 0.000000e+00 0.000000e+00
1
Step 538000
Ar -1.222610e+00 0.000000e+00 0.000000e+00
1
Step 539000
Ar -1.264441e+00 0.000000e+00 0.000000e+00
1
Step 540000
Ar -1.170259e+00 0.000000e+00 0.000000e+00
1
Step 541000
Ar -1.098031e+00 0.000000e+00 0.000000e+00
1
Step 542000
Ar -1.122037e+00 0.000000e+00 0.000000e+00
1
Step 543000
Ar -1.197977e+00 0.000000e+00 0.000000e+00
1
Step 544000
Ar -1.157065e+00 0.000000e+00 0.000000e+00
1
Step 545000
Ar -1.376980e+00 0.000000e+00 0.000000e+00
1
Step 546000
Ar -1.317119e+00 0.000000e+00 0.000000e+00
1
Step 547000
Ar -1.199089e+00 0.000000e+00 0.000000e+00
1
Step 548000
Ar -1.249602e+00 0.000000e+00 0.000000e+00
1
Step 549000
Ar -1.333042e+00 0.000000e+00 0.000000e+00
1
Step 550000
Ar -1.353461e+00 0.000000e+00 0.000000e+00
1
Step 551000
Ar -1.360656e+00 0.000000e+00 0.000000e+00
1
Step 552000
Ar -1.474987e+00 0.000000e+00 0.000000e+00
1
Step 553000
Ar -1.482908e+00 0.000000e+00 0.000000e+00
1
Step 554000
Ar -1.446610e+00 0.000000e+00 0.000000e+00
1
Step 555000
Ar -1.416010e+00 0.000000e+00 0.000000e+00
1
Step 556000
Ar -1.436871e+00 0.000000e+00 0.000000e+00
1
Step 557000
Ar -1.432936e+00 0.000000e+00 0.000000e+00
1
Step 558000
Ar -1.391110e+00 0.000000e+00 0.000000e+00
1
Step 559000
Ar -1.406276e+00 0.000000e+00 0.000000e+00
1
Step 560000
Ar -1.417645e+00 0.000000e+00 0.000000e+00
1
Step 561000
Ar -1.494189e+00 0.000000e+00 0.000000e+00
1
Step 562000
Ar -1.454729e+00 0.000000e+00 0.000000e+00
1
Step 563000
Ar -1.512627e+00 0.000000e+00 0.000000e+00
1
Step 564000
Ar -1.467702e+00 0.000000e+00 0.000000e+00
1
Step 565000
Ar -1.527673e+00 0.000000e+00 0.000000e+00
1
Step 566000
Ar -1.492617e+00 0.000000e+00 0.000000e+00
1
Step 567000
Ar -1.552343e+00 0.000000e+00 0.000000e+00
1
Step 568000
Ar -1.507319e+00 0.000000e+00 0.000000e+00
1
Step 569000
Ar -1.505127e+00 0.000000e+00 0.000000e+00
1
Step 570000
Ar -1.368423e+00 0.000000e+00 0.000000e+00
1
Step 571000
Ar -1.182235e+00 0.000000e+00 0.000000e+00
1
Step 572000
Ar -1.163518e+00 0.000000e+00 0.000000e+00
1
Step 573000
Ar -1.266263e+00 0.000000e+00 0.000000e+00
1
Step 574000
Ar -1.235203e+00 0.000000e+00 0.000000e+00
1
Step 575000
Ar -1.193848e+00 0.000000e+00 0.000000e+00
1
Step 576000
Ar -1.177125e+00 0.000000e+00 0.000000e+00
1
Step 577000
Ar -1.189318e+00 0.000000e+00 0.000000e+00
1
Step 578000
Ar -1.087038e+00 0.000000e+00 0.000000e+00
1
Step 579000
Ar -5.965789e-01 0.000000e+00 0.000000e+00
1
Step 580000
Ar -5.495709e-01 0.000000e+00 0.000000e+00
1
Step 581000
Ar -6.932004e-01 0.000000e+00 0.000000e+00
1
Step 582000
Ar -9.158013e-01 0.000000e+00 0.000000e+00
1
Step 583000
Ar -8.956956e-01 0.000000e+00 0.000000e+00
1
Step 584000
Ar -8.384800e-01 0.000000e+00 0.000000e+00
1
Step 585000
Ar -8.884938e-01 0.000000e+00 0.000000e+00
1
Step 586000
Ar -4.543372e-01 0.000000e+00 0.000000e+00
1
Step 587000
Ar -4.226301e-01 0.000000e+00 0.000000e+00
1
Step 588000
Ar -3.928372e-01 0.000000e+00 0.000000e+00
1
Step 589000
Ar -3.704066e-01 0.000000e+00 0.000000e+00
1
Step 590000
Ar -1.807193e-01 0.000000e+00 0.000000e+00
1
Step 591000
Ar -1.653026e-01 0.000000e+00 0.000000e+00
1
Step 592000
Ar -2.750761e-01 0.000000e+00 0.000000e+00
1
Step 593000
Ar -2.432500e-01 0.000000e+00 0.000000e+00
1
Step 594000
Ar -2.788072e-01 0.000000e+00 0.000000e+00
1
Step 595000
Ar -2.977270e-01 0.000000e+00 0.000000e+00
1
Step 596000
Ar -1.931605e-01 0.000000e+00 0.000000e+00
1
Step 597000
Ar 2.381557e-01 0.000000e+00 0.000000e+00
1
Step 598000
Ar 3.253639e-01 0.000000e+00 0.000000e+00
1
Step 599000
Ar 2.643083e-01 0.000000e+00 0.000000e+00
1
Step 600000
Ar 3.077762e-01 0.000000e+00 0.000000e+00
1
Step 601000
Ar 3.498417e-01 0.000000e+00 0.000000e+00
1
Step 602000
Ar 2.944073e-01 0.000000e+00 0.000000e+00
1
Step 603000
Ar 6.034915e-01 0.000000e+00 0.000000e+00
1
Step 604000
Ar 5.777274e-01 0.000000e+00 0.000000e+00
1
Step 605000
Ar 5.711018e-01 0.000000e+00 0.000000e+00
1
Step 606000
Ar 5.558062e-01 0.000000e+00 0.000000e+00
1
Step 607000
Ar 7.722219e-01 0.000000e+00 0.000000e+00
1
Step 608000
Ar 7.029802e-01 0.000000e+00 0.000000e+00
1
Step 609000
Ar 7.138138e-01 0.000000e+00 0.000000e+00
1
Step 610000
Ar 4.370465e-01 0.000000e+00 0.000000e+00
1
Step 611000
Ar 4.261823e-01 0.000000e+00 0.000000e+00
1
Step 612000
Ar 3.554746e-01 0.000000e+00 0.000000e+00
1
Step 613000
Ar 3.726304e-01 0.000000e+00 0.000000e+00
1
Step 614000
Ar 3.967958e-01 0.000000e+00 0.000000e+00
1
Step 615000
Ar 5.173465e-01 0.000000e+00 0.000000e+00
1
Step 616000
Ar 5.233123e-01 0.000000e+00 0.000000e+00
1
Step 617000
Ar 5.057903e-01 0.000000e+00 0.000000e+00
1
Step 618000
Ar 6.120038e-01 0.000000e+00 0.000000e+00
1
Step 619000
Ar 6.252157e-01 0.000000e+00 0.000000e+00
1
Step 620000
Ar 1.699943e-01 0.000000e+00 0.000000e+00
1
Step 621000
Ar 2.527538e-01 0.000000e+00 0.000000e+00
1
Step 622000
Ar 2.703244e-01 0.000000e+00 0.000000e+00
1
Step 623000
Ar 2.788924e-01 0.000000e+00 0.000000e+00
1
Step 624000
Ar 3.190188e-01 0.000000e+00 0.000000e+00
1
Step 625000
Ar 4.158180e-01 0.000000e+00 0.000000e+00
1
Step 626000
Ar 8.147563e-02 0.000000e+00 0.000000e+00
1
Step 627000
Ar 2.253688e-01 0.000000e+00 0.000000e+00
1
Step 628000
Ar 9.391378e-02 0.000000e+00 0.000000e+00
1
Step 629000
Ar 1.160969e-01 0.000000e+00 0.000000e+00
1
Step 630000
Ar 1.797024e-01 0.000000e+00 0.000000e+00
1
Step 631000
Ar 1.841585e-01 0.000000e+00 0.000000e+00
1
Step 632000
Ar 1.947782e-01 0.000000e+00 0.000000e+00
1
Step 633000
Ar 2.429161e-01 0.000000e+00 0.000000e+00
1
Step 634000
Ar 3.602311e-01 0.000000e+00 0.000000e+00
1
Step 635000
Ar 4.788550e-01 0.000000e+00 0.000000e+00
1
Step 636000
Ar 4.708792e-01 0.000000e+00 0.000000e+00
1
Step 637000
Ar 4.869662e-01 0.000000e+00 0.000000e+00
1
Step 638000
Ar 4.538693e-01 0.000000e+00 0.000000e+00
1
Step 639000
Ar 3.407434e-01 0.000000e+00 0.000000e+00
1
Step 640000
Ar 2.108573e-01 0.000000e+00 0.000000e+00
1
Step 641000
Ar 3.032998e-01 0.000000e+00 0.000000e+00
1
Step 642000
Ar 3.988645e-01 0.000000e+00 0.000000e+00
1
Step 643000
Ar 2.526761e-01 0.000000e+00 0.000000e+00
1
Step 644000
Ar 4.618863e-01 0.000000e+00 0.000000e+00
1
Step 645000
Ar 4.285122e-01 0.000000e+00 0.000000e+00
1
Step 646000
Ar 4.775475e-01 0.000000e+00 0.000000e+00
1
Step 647000
Ar 6.534934e-01 0.000000e+00 0.000000e+00
1
Step 648000
Ar 8.496015e-01 0.000000e+00 0.000000e+00
1
Step 649000
Ar 7.997198e-01 0.000000e+00 0.000000e+00
1